# vtk DataFile Version 3.0.
comment
ASCII

DATASET POLYDATA
POINTS 11991 double
0.0719529 0.955476 0.816606
0.0642844 0.91267 0.811483
0.587317 0.382893 0.576836
0.0581138 0.138219 0.229254
0.0582949 0.170944 0.189651
0.155251 -0.0243116 0.646388
0.0511934 0.0297403 0.315119
0.127754 0.198068 0.252297
0.0457364 0.910741 0.849037
0.046937 0.4817 0.231733
0.0837662 0.101058 0.246491
0.13702 0.245909 0.424378
0.611663 0.400935 0.373681
0.114678 0.0885328 0.374332
0.071953 0.228193 0.816607
0.098926 0.149498 0.537481
0.120334 0.0974859 0.502398
0.654996 0.056801 0.516307
0.322938 0.320943 0.31738
0.350922 0.591985 0.287791
0.0864287 0.32095 0.44566
0.325608 0.0571424 0.671808
0.13981 0.344738 0.340922
0.107675 0.491846 0.0575389
0.0642845 0.185387 0.811484
0.0457364 0.183458 0.849038
0.102111 0.597841 0.315135
0.146411 0.66732 0.406604
0.0822927 0.298235 0.734671
0.0831017 0.300479 0.67788
0.110085 0.235043 0.708568
0.049774 0.272082 0.395681
0.071953 0.955476 0.0868214
0.00435971 0.494875 0.303662
0.0642845 0.91267 0.0816983
0.0457365 0.91074 0.119252
0.123203 0.525351 0.648358
0.0684807 0.48679 0.33212
0.676461 0.464284 0.616219
0.0860572 0.645518 0.483256
0.124684 0.694385 0.471207
0.127754 0.198068 0.982082
0.106192 0.203807 0.928159
0.275567 0.461115 0.4096
0.122721 0.159558 0.709499
0.233979 0.257735 0.407864
0.0997481 0.266309 0.394491
0.10767 0.282199 0.438036
0.612378 0.270597 0.636528
0.109144 0.0350167 0.623946
0.0424171 0.555641 0.574276
0.62539 0.587062 0.462215
0.399297 0.0904454 0.210955
0.103322 0.248469 0.964843
0.0730254 0.454117 0.0947642
0.313477 0.353033 0.574669
0.325038 0.29596 0.467938
0.0960656 0.147769 0.996262
0.117632 0.054734 0.583327
0.1166 0.222784 0.569341
0.105738 0.297443 0.636729
0.230904 0.118814 0.394945
0.145139 0.728544 0.269985
0.656313 0.599632 0.537289
0.161663 0.676888 0.34929
0.0468216 0.3206 0.425984
0.0794777 0.250882 1.01022
0.407885 0.369753 0.418327
0.0581136 0.138219 0.95904
0.0767545 0.400257 0.196122
0.107792 0.199821 0.070875
0.191916 0.459498 0.585379
0.123332 0.113331 0.0554063
0.12689 0.504878 0.188975
0.102322 0.413838 0.15564
0.140507 0.460019 0.21898
0.0582946 0.170943 0.919436
0.536256 0.624468 0.183782
0.684963 0.363578 0.0422063
0.128808 0.227872 0.124958
0.0678477 0.034816 0.0669398
0.668975 0.720305 0.687501
0.137913 0.019394 0.127203
0.171812 0.416565 0.580697
0.0367898 0.531918 0.60869
0.698208 0.699654 0.497337
0.127754 0.925351 0.982082
0.106192 0.931089 0.928159
0.144151 0.15765 0.373361
0.646428 0.356764 0.272944
0.654392 0.0821631 0.472245
0.153444 0.263046 0.326465
0.187425 0.250046 0.362592
0.103322 0.975753 0.964842
0.699408 0.0735707 0.305177
0.123907 0.320423 0.681423
0.529933 0.222567 0.322523
0.0960656 0.875052 0.996262
0.172266 0.506132 0.211473
0.112424 0.602159 0.16819
0.310217 0.564842 0.635351
0.589638 0.579536 0.496007
0.190931 0.4608 0.67694
0.180062 0.378139 0.62784
0.55165 0.64083 0.334834
0.679558 0.219281 0.520233
0.0794776 0.978165 1.01022
0.153017 0.64096 0.0213075
0.052498 0.347685 0.461971
0.139463 0.527607 0.5687
0.120086 0.506375 0.457316
-0.00104094 0.124258 0.61068
0.164721 0.488089 0.540995
0.497338 0.0669079 0.142205
0.0581137 0.865502 0.959039
0.0582947 0.898226 0.919436
0.0174017 0.244285 0.431822
0.672081 0.363774 0.63722
0.169874 0.152106 0.701044
0.206955 0.18796 0.701642
0.228455 0.194728 0.649669
0.153416 0.476498 0.390073
0.208094 0.731453 0.474015
0.127754 0.925351 0.252297
0.441413 0.169866 0.245903
0.209579 0.394863 0.529967
0.508698 0.279639 0.623331
0.160641 0.321048 0.583409
0.176656 0.591325 0.57338
0.176611 0.599125 0.651368
0.217802 0.556876 0.652737
0.106192 0.93109 0.198374
0.229524 0.535935 0.695042
0.103322 0.975752 0.235057
0.24937 0.529698 0.737176
0.241981 0.487505 0.684084
0.593817 0.526084 0.499523
0.128395 0.324184 0.255305
0.567075 0.0342778 0.220668
0.313305 0.176112 0.431764
0.153642 0.0655665 0.441102
0.163 0.115157 0.508519
0.180122 0.133238 0.458992
0.176383 0.182799 0.619405
0.162792 0.129843 0.657475
0.0878129 0.483912 0.295226
0.0960654 0.875052 0.266477
0.128721 0.375829 0.509925
0.0746867 0.222474 0.510507
0.712051 0.143734 0.281001
0.0642848 0.185388 0.0816984
0.382662 0.630925 0.370695
0.173353 0.231955 0.163171
0.135731 0.0681614 0.13594
0.374956 0.477697 0.174579
0.0794777 0.978165 0.280433
0.215584 0.180639 0.311002
0.169268 0.500703 0.124761
0.180798 0.451118 0.110399
0.146445 0.495074 0.264667
0.707139 0.592238 0.525457
0.376697 0.383344 0.252679
0.19273 0.310555 0.0573326
0.0581134 0.865502 0.229255
0.0582947 0.898226 0.189651
0.653277 0.400154 0.343393
0.184633 0.0357573 0.375155
0.0343504 0.47198 0.606817
0.158104 0.024016 0.633443
0.213802 0.0676818 0.122977
0.325496 0.463389 0.321274
0.186452 0.0747765 0.190905
0.428645 0.489854 0.587832
0.162092 0.576267 0.119594
0.174717 0.566549 0.072084
0.536717 0.139181 0.460556
0.167679 0.524384 0.396873
0.066541 1.03187 0.321065
0.158519 0.536602 0.144665
0.0603524 1.04101 0.378872
0.229574 0.0452003 0.712349
0.0748841 0.602831 0.0296286
0.201709 0.640925 0.570182
0.646662 0.656475 0.491801
0.184771 0.667577 0.194148
0.53731 0.48261 0.410578
0.38446 0.519431 0.458842
0.0594312 1.09013 0.366383
0.181221 0.718849 0.231565
0.22951 0.502493 0.211499
0.24461 0.498265 0.270219
0.551386 0.667495 0.682075
0.228664 0.652382 0.440929
0.236949 -0.00801639 0.305846
0.204868 0.654986 0.0506482
0.316447 0.0962101 0.383911
0.232204 0.626556 0.00728363
0.0931976 0.361216 0.240488
0.400631 0.61296 0.157563
0.0698203 0.0652474 0.604273
0.210332 0.604189 0.382912
0.249288 0.682904 0.110546
0.204835 0.570788 0.32503
0.0794897 0.469009 0.642809
0.241267 0.559821 0.279215
0.33339 0.379462 0.456396
0.0665409 0.304589 1.05085
0.23126 0.18402 0.602276
0.221379 0.240411 0.593703
0.178512 0.623127 0.426058
0.0603523 0.313727 1.10866
0.0594311 0.362849 1.09617
0.727248 0.389839 0.554471
0.463346 0.416597 0.718538
0.4202 0.431177 0.234634
0.645532 0.525456 0.416918
0.444049 0.296028 0.147468
0.682158 0.340858 0.16625
0.378448 0.40195 0.708329
0.614793 0.00401172 0.129095
0.189393 0.301942 0.369477
0.177599 0.33058 0.414514
0.608087 0.523368 0.203974
0.719815 0.44288 0.559758
0.228574 0.175287 0.54225
0.0861288 0.621306 0.204854
0.217254 0.217047 0.489988
0.214772 0.138129 0.691025
0.749958 0.109924 0.484027
0.210919 0.132256 0.555688
0.222465 0.126161 0.0901436
0.0665413 1.03187 1.05085
0.0603529 1.04101 1.10866
0.185924 0.568971 0.420207
0.183671 0.564845 0.495802
0.652008 0.262347 0.731655
0.425225 0.719236 0.0918713
0.0594317 1.09013 1.09617
0.248907 0.534582 0.42533
0.613435 0.0378057 0.100038
0.232552 0.304015 0.213108
0.237327 0.204617 0.16622
0.219299 0.196396 0.452155
0.283715 0.137117 0.514568
0.220271 0.16211 0.415589
0.199906 0.490969 0.369817
0.261165 0.122145 0.714229
0.644232 0.166898 0.167531
0.215604 0.361675 0.209489
0.327079 0.128238 0.599461
0.232325 0.36422 0.493173
0.269056 0.382165 0.568139
0.326057 0.577378 0.401505
0.0807056 0.11694 0.13607
0.672502 0.372426 0.225615
0.605053 0.615061 0.101966
0.253543 0.226199 0.680856
0.221696 0.162468 0.125182
0.250061 0.169159 0.0794832
0.709008 0.260854 0.150228
0.254535 0.377678 0.672923
0.26696 0.330506 0.59025
0.454549 0.361616 0.507007
0.307171 0.355522 0.676812
0.336207 0.391561 0.654594
0.109144 0.7623 1.35373
0.273775 0.359155 0.722116
0.233715 0.537334 0.502484
0.264437 0.721479 0.434185
0.256388 0.391988 0.346797
0.265966 0.352966 0.384562
0.2472 0.698948 0.565279
0.639329 0.398753 0.560294
0.388378 0.219265 0.63322
0.282807 0.0850109 0.601167
0.304135 0.188751 0.600509
0.0809866 0.81634 1.41667
0.672613 0.207895 0.674166
0.484869 0.161303 0.251901
0.725838 0.286394 0.217629
0.0698203 0.79253 1.33406
0.225391 0.0808677 0.459121
0.109144 0.0350163 1.35373
0.631236 0.579023 0.20117
0.0312148 0.363302 0.106658
0.663962 0.187603 0.550899
0.297422 0.276655 0.521473
0.654277 0.375784 0.683675
0.282117 0.432652 0.63628
-0.008785 0.563428 0.21284
0.31961 0.533234 0.198323
0.264171 0.395016 0.0944631
0.686375 0.2092 0.169599
0.65207 0.659894 0.120747
0.293324 0.485253 0.0982934
0.317952 0.442083 0.12523
0.511549 0.492336 0.184436
0.346169 0.633959 0.0876836
0.368662 0.618124 -0.00461223
0.281171 0.384761 0.429096
0.645629 0.551016 0.282907
0.60583 0.565257 0.334735
0.31512 0.658058 0.0283606
0.184898 0.42964 0.153921
0.254538 0.106316 0.436768
0.280337 0.523603 0.616317
0.568485 0.521258 0.460038
0.287463 0.192763 0.382807
0.139449 0.118233 0.699087
0.529699 0.178637 0.238526
0.659171 0.105938 0.202945
0.263564 0.388979 0.295847
0.689406 0.0283062 0.277785
0.67021 0.608722 0.487547
0.29944 0.334781 0.248734
0.330117 0.301336 0.279675
0.63591 0.647183 0.537883
0.301759 0.543037 0.334764
0.325525 0.525839 0.258588
0.624805 0.18269 0.686991
0.709593 0.187691 0.537636
0.290878 0.255494 0.647355
0.295558 0.429321 0.270496
0.313412 0.385204 0.32298
0.278197 0.62799 0.106152
0.308761 0.633542 0.0666618
0.0370925 0.582026 0.219258
0.0809868 0.0890572 1.41667
0.129866 0.164391 0.177996
0.294389 0.135692 0.176695
0.0698206 0.0652472 1.33406
0.109144 0.7623 0.623945
0.577275 0.115687 0.20059
0.614945 0.0487619 0.581463
0.310439 0.0742688 0.714751
0.641425 0.443981 0.416666
0.401115 0.411643 0.667547
0.534113 0.682147 0.120968
0.682785 0.641361 0.163958
0.0603525 0.313727 0.378872
0.581466 0.112459 0.540446
0.293211 0.264151 0.27922
0.343001 0.390369 0.607993
0.31138 0.0713787 0.200291
0.315914 0.0368679 0.567859
0.704857 0.213952 0.107118
0.297737 0.664309 0.3817
0.31147 0.635908 0.307088
0.303272 0.649962 0.195028
0.643539 0.636858 0.211779
0.269143 0.606734 0.161393
0.424176 0.666215 0.150659
0.60639 0.272555 0.183092
0.323517 0.271348 0.409944
0.485093 0.180903 0.476365
0.642182 0.14359 0.726833
0.32652 0.347004 0.357903
0.0809866 0.81634 0.686884
0.329565 0.532099 0.491715
0.729493 0.399923 0.309319
0.617249 0.253909 0.0738989
0.347275 0.12976 0.0600743
0.0698204 0.79253 0.604273
0.661533 0.460983 0.23458
0.0736004 0.100137 0.00444675
0.0515378 0.0563723 -0.0120563
0.276613 0.491881 0.517922
[...]
POINT_DATA 11991

VECTORS nn double
0.87 0.456145 -0.187168
0.66834 -0.670517 -0.322068
-0.279264 -0.184333 0.942355
0.100326 0.958217 0.267872
0.0975641 0.444924 0.890238
-0.563286 -0.554909 -0.612197
0.199191 0.416294 0.887143
-0.995387 0.0188511 -0.0940686
-0.180377 0.722431 -0.667501
-0.654352 0.360788 0.664571
0.724086 0.0567124 0.687374
-0.0754216 -0.418105 -0.905262
-0.0243781 0.0373931 -0.999003
0.836379 0.542549 0.0781772
0.869997 0.456148 -0.187175
0.286189 0.937301 -0.198905
-0.633518 -0.0940784 0.767987
-0.77449 -0.200355 0.600019
-0.279257 -0.945606 -0.166868
-0.236195 0.750877 -0.616763
-0.193421 -0.572712 -0.796611
-0.491038 -0.443395 -0.749855
-0.282359 0.451208 -0.846573
-0.0770732 0.841343 -0.534979
0.668339 -0.670518 -0.322069
-0.180373 0.722435 -0.667497
0.426652 -0.135432 0.894218
-0.951005 0.0868807 0.296718
0.245995 0.743434 0.621927
0.263171 0.791199 -0.552038
0.822147 -0.563191 0.0830076
0.687985 0.602231 0.404963
0.869998 0.456149 -0.187169
0.302388 0.0644677 -0.951002
0.668339 -0.670519 -0.322068
-0.180375 0.722433 -0.667499
-0.758762 -0.396566 0.516736
-0.00719188 0.8599 0.510412
-0.176036 0.933725 0.311719
-0.00621709 0.428349 -0.903592
-0.611718 -0.337265 -0.715579
-0.995387 0.0188514 -0.0940671
-0.654459 -0.0712894 0.752729
0.430112 0.704422 -0.564618
0.591196 0.803828 0.0659361
0.0218702 -0.336566 0.941406
-0.513521 0.740624 0.433327
-0.703815 0.358672 -0.613187
0.0709337 0.368235 -0.927023
-0.822384 0.060693 0.565686
0.509575 0.180118 0.841363
0.0314838 -0.552779 -0.832733
-0.803411 0.402206 -0.439045
0.6096 0.772724 -0.176876
0.923755 0.0803222 -0.374467
0.427589 -0.365864 -0.826626
-0.156169 0.590071 -0.792103
0.495661 -0.808769 0.316563
-0.588666 0.598273 -0.543638
0.0697563 0.538401 0.839797
0.273954 -0.863024 -0.424427
0.171014 0.79636 -0.580142
-0.414645 -0.623459 0.662849
0.658944 -0.297573 0.690828
-0.69262 0.249506 -0.676775
-0.759128 0.564666 0.323847
0.235204 0.810865 0.535889
0.0429732 0.403431 -0.914
0.100329 0.958217 0.26787
0.161302 0.983984 -0.0758705
-0.225288 -0.969132 -0.100142
0.157698 0.503276 -0.849614
-0.544593 0.809881 0.217973
-0.667059 -0.743812 0.0421451
-0.26121 0.761291 0.593468
-0.891331 -0.00244223 -0.453347
0.097568 0.444927 0.890236
-0.190347 -0.340361 -0.920827
-0.172381 -0.931051 -0.321604
-0.153537 0.46183 -0.873579
0.425103 -0.701155 0.572425
0.695393 0.284187 -0.66005
-0.773819 -0.43644 -0.459048
-0.212678 -0.288068 -0.933694
0.647526 0.762038 -0.00296748
-0.884984 -0.272614 -0.377473
-0.995387 0.0188488 -0.0940665
-0.654462 -0.0712893 0.752727
0.188253 -0.977067 0.0995014
0.035601 -0.830091 0.55649
-0.788775 0.409067 -0.458802
0.335203 0.68951 -0.642039
0.872296 0.483832 -0.0707566
0.609597 0.772726 -0.176878
0.77333 0.570419 -0.276736
-0.704149 0.317407 -0.635159
0.480227 -0.0107069 -0.877079
0.495662 -0.808769 0.316561
-0.398706 0.71692 -0.571891
-0.795436 -0.495635 0.348752
0.412384 -0.140857 0.900055
-0.693733 -0.705114 -0.146796
-0.139369 -0.526666 -0.838569
0.0608811 0.995951 0.066138
0.14412 0.989549 0.00469106
-0.281678 0.0251944 -0.959178
0.235204 0.810868 0.535885
0.692465 -0.6723 0.261735
-0.88445 -0.0292742 -0.465715
-0.491008 -0.359277 -0.793619
-0.182282 -0.0208017 0.983026
-0.54053 -0.764079 -0.352152
0.895549 -0.271296 0.352691
0.451746 -0.56905 -0.687101
0.100326 0.958217 0.267872
0.0975661 0.444924 0.890238
-0.182366 -0.168062 -0.968761
-0.247813 -0.713071 0.655834
-0.262054 0.939842 0.219145
-0.933897 0.290549 0.208368
-0.543561 0.412254 -0.731155
-0.548579 0.675616 0.492548
0.699879 0.245674 -0.670682
-0.995387 0.0188504 -0.0940664
0.36207 0.161333 0.918083
-0.982821 0.154528 0.100917
-0.0376996 -0.350638 0.935752
-0.361263 -0.245419 -0.899588
0.120556 0.68785 -0.715772
0.119836 0.816065 0.5654
-0.798559 -0.122269 -0.589367
-0.654461 -0.0712909 0.752727
-0.482536 -0.684035 0.547043
0.609598 0.772725 -0.176878
0.801681 0.58303 0.131844
0.683337 -0.0964354 -0.723706
0.7926 -0.564613 0.230211
-0.0897986 0.797305 0.596859
-0.10459 0.811868 -0.574396
-0.321395 -0.781437 0.534848
0.10424 -0.800927 -0.589618
0.311247 0.297059 0.902708
0.690238 0.697283 -0.193307
-0.713904 -0.700243 0.000279842
-0.427534 0.41621 -0.802486
0.470839 0.783957 -0.404626
0.49566 -0.80877 0.316562
0.666784 0.543267 0.510156
0.773598 -0.532125 0.344079
-0.521556 0.828186 -0.205154
0.668337 -0.670519 -0.322072
0.33391 -0.942513 0.0131751
0.833248 0.552238 -0.027037
0.815753 -0.499652 0.291368
0.0585568 0.67941 0.731419
0.235204 0.810866 0.535887
-0.434297 0.264702 -0.860999
-0.171345 0.822749 -0.541964
0.117237 -0.418458 -0.900638
-0.799388 0.54296 0.257242
-0.349427 -0.150688 0.924767
-0.316974 -0.89588 -0.31133
0.571526 -0.78768 -0.230039
0.100331 0.958217 0.26787
0.0975659 0.444926 0.890237
0.942591 -0.0545899 0.329458
-0.555593 -0.165613 0.814793
0.583301 -0.810584 -0.0521007
-0.51504 0.239453 -0.823041
-0.683331 -0.490774 0.540555
0.771899 0.635405 -0.0208017
-0.157798 -0.626364 -0.763392
0.0826983 -0.746205 -0.66056
-0.00690858 -0.906298 -0.422582
-0.296154 -0.685752 0.664858
0.604753 0.795017 0.047126
-0.861405 -0.374056 0.343603
0.577426 -0.611946 -0.540464
0.0748577 0.000311033 -0.997194
0.433119 -0.398826 0.808298
0.657776 0.587186 0.471745
-0.203965 0.103346 0.973508
-0.516835 -0.573047 -0.636002
0.462918 0.855477 -0.232089
0.353424 0.543371 0.761472
0.893267 0.19141 0.406738
-0.0301251 0.374678 0.926666
-0.412618 -0.749191 -0.518131
0.450353 -0.854596 -0.258552
0.492645 0.657933 -0.569583
-0.728242 -0.592861 -0.343772
-0.368402 -0.215259 0.904402
0.445438 -0.166751 0.879647
0.310966 -0.890058 -0.333312
-0.253932 -0.927688 -0.273704
-0.374268 -0.86892 0.323885
-0.752076 -0.408764 0.517005
0.503357 0.173215 0.846539
0.733603 0.312527 0.603452
-0.185729 -0.428717 0.884142
-0.134198 0.98532 0.105524
-0.496863 0.455503 -0.738677
-0.227808 0.41652 -0.880122
0.141574 0.763273 0.630373
-0.791743 0.586357 -0.171257
-0.289222 -0.738622 -0.608924
0.577429 -0.611945 -0.540461
-0.612955 0.672658 0.414508
-0.372415 -0.690553 0.620035
-0.40646 -0.664011 0.627598
0.433121 -0.398825 0.808297
-0.412621 -0.749191 -0.518128
0.655354 -0.285674 -0.699215
0.0447843 -0.184654 0.981783
0.668022 0.186616 -0.720362
-0.435001 0.874042 0.216389
0.354134 0.702728 0.617059
-0.434481 -0.31521 -0.843723
-0.336081 -0.0006668 -0.941833
-0.459795 -0.0423259 -0.887016
0.834228 -0.512727 -0.202915
0.569066 0.132136 0.811606
-0.539147 -0.493142 -0.682738
-0.533845 -0.582581 0.612869
-0.65451 0.533467 -0.535751
-0.264892 -0.881568 -0.39073
-0.370859 -0.513128 0.774056
-0.791498 -0.610959 0.0161274
-0.358748 0.792703 0.492871
0.934685 0.147435 0.32346
-0.4855 0.848371 -0.211084
0.577416 -0.61195 -0.54047
0.433112 -0.398829 0.8083
-0.549975 0.385693 0.740789
-0.506906 0.46621 -0.725047
-0.872707 0.398243 0.282464
0.349315 0.649579 -0.675297
-0.412614 -0.749193 -0.51813
-0.523067 0.20016 -0.828455
-0.425172 -0.891597 -0.155833
0.0951161 0.578014 0.810464
0.170249 -0.982545 0.0749742
-0.328315 -0.944442 -0.0154808
-0.217781 0.0703707 0.973458
-0.353305 -0.0534487 0.93398
0.311803 0.942855 0.11749
0.0474545 -0.899038 0.435291
-0.240948 0.964681 -0.106463
0.364007 -0.335925 0.868708
0.90484 -0.211096 0.369733
-0.486066 -0.516518 -0.704946
0.319339 -0.123689 0.939534
0.238727 0.590975 0.770557
0.593046 -0.749273 -0.294766
0.668447 -0.44887 -0.593038
-0.383066 -0.0650789 -0.921426
-0.0903175 0.981681 -0.167764
0.471282 -0.170765 0.865293
0.998879 -0.0457629 0.0120959
-0.026697 0.399843 0.916195
0.563274 -0.048015 -0.824874
0.353802 0.744906 0.565632
-0.737334 -0.328412 0.590325
-0.322079 0.324447 -0.889381
-0.809486 -0.281093 -0.51548
-0.822382 0.0606966 0.565689
0.917416 -0.389324 0.0823038
-0.795714 0.249686 0.551811
-0.776662 0.507776 0.372774
-0.531378 -0.71107 0.460452
-0.783707 0.316778 -0.53428
0.378039 0.56815 -0.730953
-0.784259 -0.139914 -0.604451
0.959255 -0.202854 0.196672
-0.203567 0.895169 -0.396525
-0.541233 -0.746958 -0.386161
-0.366015 -0.813101 -0.452659
0.529229 0.510856 0.677453
-0.500965 0.331534 0.79945
-0.466077 -0.266944 -0.843513
-0.185726 -0.428716 0.884143
-0.0361459 0.132119 -0.990575
-0.822379 0.0606973 0.565693
0.0558334 -0.66887 0.74128
0.558239 0.388806 -0.732939
0.64996 0.72204 0.237088
-0.839763 0.113565 0.530944
0.109468 -0.954792 -0.276386
-0.0991468 0.973033 0.208269
-0.278645 -0.49628 -0.822231
0.913852 -0.178733 0.364593
0.0267486 0.913169 0.406702
0.959188 -0.244661 0.141771
0.404463 0.685368 -0.605542
-0.521648 -0.78492 0.334342
-0.984672 0.0271138 -0.172296
0.155183 -0.71889 -0.67758
-0.259926 0.694614 -0.670784
-0.344389 -0.681629 0.645583
0.541575 -0.822389 -0.174281
0.244851 0.0841685 0.965901
0.983612 -0.180272 0.00315287
-0.53222 -0.0792673 -0.842887
-0.220126 0.957125 -0.188297
0.749847 0.490968 0.443487
-0.0643828 -0.79963 0.597032
0.191182 -0.679794 -0.708047
0.799185 0.47233 0.371763
0.974368 -0.144045 -0.172796
0.48473 0.713322 0.50617
0.13969 -0.588501 0.796337
-0.396733 -0.769103 -0.501081
0.593456 -0.241635 -0.767738
-0.941128 0.113146 0.318554
-0.965006 0.0905832 0.246085
-0.455737 -0.464353 0.759395
-0.245038 -0.66752 -0.703117
0.366453 0.264793 0.891963
0.821733 -0.0643994 -0.566223
-0.387899 0.0267202 0.921314
-0.425901 0.718996 0.54923
-0.776772 0.442233 0.448391
0.207202 -0.00713311 -0.978272
0.543902 -0.839072 0.011369
0.0436484 -0.570702 -0.819997
-0.695629 -0.705758 0.134189
0.725358 -0.0896333 -0.682511
-0.36601 -0.813102 -0.45266
-0.130107 -0.944575 0.301413
-0.929856 0.345335 -0.126929
-0.185725 -0.428716 0.884143
-0.822383 0.0607001 0.565686
-0.323437 -0.935329 -0.143348
0.19685 -0.00540536 -0.980419
-0.904633 0.0256176 0.42542
-0.521348 -0.826744 0.2114
0.95059 0.263489 -0.164174
-0.597486 -0.206994 -0.774702
0.919303 0.375527 0.11774
0.433114 -0.398829 0.808299
-0.799535 -0.598235 0.0534701
0.451195 0.449434 0.770994
-0.927037 -0.262054 0.268198
0.647441 0.715554 -0.262304
-0.333151 -0.114118 0.935942
-0.145007 -0.938159 -0.314373
-0.0815775 -0.685899 -0.72311
0.384439 0.0604528 -0.921169
0.513655 -0.160794 0.842796
0.261549 0.299674 0.91749
-0.125653 -0.969123 0.212161
0.324492 -0.610833 0.72221
-0.404036 0.835659 0.372059
-0.132119 0.982606 0.130497
-0.0323396 0.0689813 -0.997094
-0.681935 0.688564 0.246667
-0.179785 -0.221886 0.958355
-0.366016 -0.813099 -0.452661
0.920228 0.155941 0.358975
-0.383711 -0.0505582 0.922068
-0.965813 0.234321 0.110899
-0.686941 0.637571 0.348734
-0.18573 -0.428713 0.884143
-0.193908 -0.195434 -0.961356
0.535412 0.559055 -0.633081
0.110211 -0.284919 -0.952195
-0.0276216 -0.562697 0.826201
0.609954 0.77237 -0.177202
-0.0166511 0.842839 0.537908
0.221322 0.0619657 0.97323
-0.353779 0.704503 -0.615237
0.0774299 -0.851511 -0.518588
-0.968851 0.0639477 0.239247
0.965177 0.0388137 -0.258702
0.107785 -0.284957 0.952461
-0.0803371 0.701863 -0.707767
-0.88291 0.0724598 0.463918
-0.0748686 -0.716427 -0.693633
0.535412 0.559053 -0.633083
0.648446 0.760677 -0.0297986
0.235204 0.810865 0.535889
0.402706 0.387525 0.829248
0.181293 -0.42741 0.885694
-0.337567 -0.910516 0.238767
0.508049 0.812454 0.286015
0.262353 -0.414306 -0.871505
0.4251 -0.701156 0.572424
-0.960958 0.133635 -0.242284
0.110209 -0.284916 -0.952196
-0.457257 -0.786316 -0.415479
-0.438424 -0.694208 0.570841
-0.116108 -0.0674897 0.990941
-0.210273 0.0614825 0.975708
-0.86906 0.0619877 -0.490808
-0.614459 -0.788525 -0.0258362
-0.222861 0.22941 0.947472
-0.96661 0.255799 0.0152006
-0.70299 -0.618256 -0.351518
0.137505 -0.412845 -0.900362
0.416932 -0.679204 -0.604028
0.10903 -0.864919 -0.489927
-0.420693 0.336039 0.842672
-0.361427 -0.496092 0.78947
-0.00568768 0.94051 0.339719
-0.535411 -0.559055 0.633082
0.844338 0.243938 -0.477061
0.685263 0.436068 -0.583318
-0.274341 -0.456033 0.846623
-0.799156 -0.360924 -0.480711
0.0495443 0.991796 0.117836
0.998636 -0.00168215 0.0521907
0.491973 -0.865399 0.0951175
-0.229765 0.377033 0.897248
0.406382 0.035983 0.912994
0.705264 0.70811 -0.0343909
-0.552086 0.41243 0.72464
0.340929 -0.025483 -0.939744
0.841001 0.530883 0.104314
0.194686 -0.437415 -0.877933
0.508047 0.812455 0.286017
0.4251 -0.701157 0.572423
-0.65188 0.734877 0.187104
-0.209583 -0.01962 -0.977594
-0.110205 0.284915 0.952197
0.195906 0.739198 0.644366
0.0801671 -0.546416 -0.833668
0.753616 0.279741 -0.594817
0.17711 0.868868 0.462277
0.90326 0.0660836 -0.423975
0.652011 -0.756587 -0.0495817
-0.646149 0.381249 -0.661166
-0.53541 -0.559055 0.633083
0.373683 0.15916 0.913799
0.508047 0.812454 0.286019
0.267061 -0.532011 -0.803519
-0.0406868 -0.0356235 0.998537
0.425104 -0.701158 0.57242
-0.524686 0.718714 -0.456239
0.49107 0.663758 -0.564159
-0.110207 0.284916 0.952196
0.33012 -0.0787544 -0.940648
0.760452 -0.0451712 0.647821
0.763858 -0.425144 -0.485565
0.889103 0.264816 0.373322
-0.762007 0.450698 -0.464991
-0.270906 0.479989 -0.834398
0.632897 0.767411 0.102575
0.910665 -0.3979 0.111197
0.946828 -0.282201 -0.154532
0.298455 0.594501 -0.746654
-0.849927 -0.501533 0.161524
-0.360354 -0.924313 -0.125662
-0.648382 0.756822 -0.0825946
0.415955 -0.610101 0.674357
-0.032409 0.418388 -0.90769
0.758247 0.224006 -0.612277
-0.534168 -0.780616 -0.324505
0.388576 0.440819 -0.809128
-0.963556 0.20767 -0.168624
0.268472 -0.841234 0.469305
0.323033 0.099533 -0.941139
-0.859122 0.360698 0.363051
-0.550874 0.713 0.433783
-0.164433 0.984169 -0.0661341
0.816508 0.476641 0.325774
0.889102 0.264814 0.373325
-0.64838 0.756822 -0.0826013
0.00110006 -0.603649 0.797249
-0.809857 -0.405339 -0.424067
0.935435 0.1413 -0.324029
0.272729 -0.827957 0.490007
0.0899573 0.314249 0.945069
-0.223129 -0.288261 0.931192
-0.377494 0.20639 0.902719
-0.460711 -0.868167 0.184474
0.290466 0.609252 -0.737863
0.591033 -0.716896 0.369783
0.483014 0.0137109 -0.875505
-0.911805 0.327012 0.248344
0.564465 0.717354 0.408392
0.544779 -0.774365 0.321829
-0.0898146 -0.958383 0.270991
0.259486 -0.636701 0.72614
0.0905012 -0.586237 -0.805069
-0.379899 -0.915298 0.133816
-0.164543 0.366222 -0.915864
0.0657519 -0.73905 -0.670434
0.491801 -0.205015 0.846227
0.558794 0.5548 0.616398
0.523842 -0.121172 0.843153
-0.320665 0.715365 -0.620828
-0.957497 0.238033 0.162911
-0.674346 0.20753 -0.708653
0.143564 -0.311845 0.939224
0.00605499 -0.318853 -0.947785
0.889103 0.264812 0.373324
0.740643 0.117461 0.661552
0.806772 0.590285 0.0261211
-0.618203 -0.656854 -0.431703
0.997366 0.0653476 -0.0314682
0.44312 -0.80929 -0.385609
0.968675 -0.214556 -0.125037
-0.920277 -0.248858 0.301927
-0.56245 -0.540191 -0.625974
0.0376153 -0.611602 -0.790271
-0.648375 0.756827 -0.0826024
-0.680598 -0.410477 -0.606874
0.1748 0.61523 -0.768724
-0.0162142 0.830668 -0.556532
0.453562 -0.180409 -0.872774
0.988198 -0.135456 0.0715283
0.478856 -0.199716 0.854875
-0.858159 0.44668 0.253061
-0.456925 -0.837475 0.29976
-0.369509 0.448241 0.813968
-0.109765 0.906087 -0.408606
0.569549 -0.747048 0.342831
-0.1306 -0.659524 0.740251
-0.509358 0.860313 -0.0203814
0.917976 -0.396611 0.00447675
0.509584 0.180116 0.841357
0.537727 0.794516 0.282123
-0.560565 -0.117747 0.819696
0.503368 -0.848596 0.162808
0.585672 0.579875 0.566333
0.135915 -0.11309 0.984245
0.614763 -0.759292 -0.213404
-0.489724 -0.792815 -0.362788
-0.361798 -0.827791 0.428794
-0.265005 0.149768 0.952545
-0.495298 -0.818717 0.290487
0.141866 0.023437 -0.989608
-0.777307 -0.430759 -0.458521
-0.272183 0.944073 0.186125
-0.710666 0.450704 -0.540203
-0.952804 0.0656805 -0.296397
0.710717 -0.525731 0.467428
0.356129 0.0228427 0.934158
0.0987695 -0.975163 -0.198247
0.285432 0.276098 -0.917768
0.225523 -0.966349 -0.123726
0.442339 0.639979 -0.628302
-0.0657212 -0.946765 0.315146
-0.85816 0.446678 0.25306
0.911005 -0.0650849 -0.407226
0.160835 -0.532166 -0.831223
0.509578 0.180122 0.84136
-0.858163 0.446677 0.253055
0.679118 -0.717741 0.153776
0.509579 0.180116 0.84136
0.920241 0.109325 0.375771
-0.894996 0.445691 -0.0184805
0.493077 -0.0960527 -0.864667
0.651396 0.710702 -0.26568
0.506595 -0.525039 0.683882
-0.0954807 0.549442 -0.830058
0.59958 -0.736061 -0.314194
0.053623 -0.465489 -0.883428
-0.0793441 -0.916781 -0.39143
-0.461838 0.876406 0.13645
-0.839238 -0.53203 0.112355
0.359324 -0.0730273 0.930351
-0.600221 -0.370508 0.708844
0.326629 0.728358 0.602336
0.994693 0.0733068 -0.0721919
0.811228 -0.445659 -0.378546
0.480617 0.0895993 0.872341
0.422405 0.878871 0.221719
-0.699711 0.165325 -0.695033
-0.811229 0.445655 0.378548
0.549936 0.294631 0.781513
0.528122 0.846613 -0.0658254
0.76631 -0.108001 0.633328
0.146914 0.654517 -0.741636
0.698947 -0.682504 0.213686
-0.186435 -0.976736 -0.105965
0.209023 0.456092 0.865037
0.589551 -0.754965 -0.287154
-0.42961 0.15506 0.889602
0.508855 -0.190578 0.839492
-0.533473 -0.678528 0.504981
0.811228 -0.445654 -0.378551
-0.858318 0.417437 -0.298389
-0.213495 0.49248 -0.843732
0.508047 0.812455 0.286015
0.766311 -0.108 0.633328
-0.464203 0.843702 0.269596
-0.105612 -0.984936 0.136923
0.320503 0.409406 -0.854204
-0.265151 0.269994 -0.925634
0.690548 0.613612 -0.382914
0.570781 0.808152 -0.145255
-0.122314 -0.0206171 -0.992277
-0.493464 -0.46468 -0.735232
-0.89511 -0.395309 0.206177
0.8029 0.542186 0.247761
-0.934786 -0.220624 0.27839
-0.735353 -0.675558 0.0536375
0.979072 0.118699 0.165314
-0.36461 -0.602022 -0.710372
0.999431 -0.033715 -0.000864414
-0.811226 0.445659 0.378551
0.402711 0.840322 0.362882
0.512704 -0.858352 0.0191554
-0.383285 -0.586153 -0.713804
0.766305 -0.108003 0.633334
0.485848 0.502496 0.715157
0.128698 -0.354428 0.926184
0.0489122 -0.0320188 0.99829
0.732937 0.660308 -0.163695
0.865681 0.491917 -0.0928149
-0.0305364 0.0150858 -0.99942
-0.426482 0.835757 0.345866
0.153978 -0.980702 0.120475
-0.240828 -0.599599 -0.763205
0.0957878 0.727521 -0.679366
0.435415 0.282633 -0.854712
0.4444 -0.691193 0.569878
0.359328 0.594353 0.719464
-0.499556 -0.841381 -0.20621
-0.692214 -0.651536 -0.310386
0.671598 0.733008 -0.107962
0.497799 -0.861431 0.100662
0.68304 0.0575679 0.728109
0.468578 0.882517 0.0399895
0.864277 -0.502694 0.0179874
0.831019 0.445447 -0.333144
-0.975042 0.219775 -0.0314832
0.235203 0.328683 -0.914684
-0.486775 -0.845987 0.217615
-0.0582288 -0.998297 -0.00355446
-0.58182 0.453281 -0.675294
-0.191622 0.561928 0.804685
0.420904 0.113172 -0.900018
0.0708932 -0.726406 -0.683599
-0.60037 0.53677 -0.592818
-0.780571 -0.207935 0.589467
0.850345 -0.445548 -0.280001
-0.532573 -0.144557 -0.833948
0.374977 -0.648612 -0.66234
-0.333688 0.919568 0.207477
-0.999601 0.0271272 0.00787038
-0.520243 -0.276643 -0.80797
-0.361305 0.207659 0.909031
-0.616508 0.787192 -0.0157405
-0.0567604 -0.399901 -0.914799
0.626123 0.751825 -0.206709
-0.946962 -0.142014 0.288263
-0.864281 0.502687 -0.017991
0.44826 -0.0188578 -0.893704
0.889101 0.264818 0.373323
-0.486775 -0.845987 0.217614
-0.532568 -0.144561 -0.83395
-0.612015 0.481306 -0.62752
-0.361303 0.207655 0.909032
-0.86428 0.50269 -0.0179855
-0.406041 0.817575 -0.408292
0.267305 0.962443 0.0474536
-0.486772 -0.845989 0.217614
0.225773 -0.841895 0.490142
0.0371417 0.553743 -0.831859
0.523676 0.0695287 0.849076
0.373493 0.706172 -0.601518
-0.704965 0.0143022 0.709098
-0.137994 -0.979408 0.147369
0.258098 0.954844 0.147168
0.661532 0.748484 0.0463417
0.745882 -0.45359 -0.487767
-0.397518 0.747715 -0.531885
0.210078 -0.625858 0.751112
0.838196 0.543853 0.0406365
0.291556 -0.951563 -0.0975838
-0.236623 -0.242066 0.940964
-0.071828 -0.912772 0.402103
0.591005 0.73535 0.331624
-0.37619 -0.47521 0.795397
-0.448218 -0.0345803 0.893255
0.128247 -0.977653 -0.166577
0.304194 0.669254 -0.677912
0.416517 0.59402 0.688225
-0.532573 -0.144559 -0.833948
-0.527364 0.802545 -0.278941
-0.636251 0.640328 0.430308
-0.361304 0.207656 0.909031
0.864283 -0.502684 0.0179879
-0.486778 -0.845985 0.217614
-0.532574 -0.144559 -0.833947
0.685135 0.536289 0.492934
-0.966661 -0.0919548 -0.238981
-0.555192 -0.189974 -0.809736
-0.879329 -0.475614 0.0239082
-0.543969 0.838669 -0.0270556
-0.361306 0.207657 0.909031
0.95007 0.156642 0.269872
0.976092 -0.112657 0.185885
-0.608806 -0.732668 0.304224
-0.849413 0.276681 0.449382
-0.429785 -0.772089 0.468148
-0.391727 0.0561224 0.918368
-0.876236 -0.263363 -0.403548