# vtk DataFile Version 3.0.
comment
ASCII

DATASET POLYDATA
POINTS 23982 double
0.0388945 0.938143 0.823719
0.120278 0.980813 0.80621
0.0388945 0.938143 0.823719
0.0968437 0.880005 0.795793
0.600979 0.391911 0.530736
0.572634 0.373202 0.626382
0.0539788 0.0987254 0.218214
0.0645055 0.199266 0.24632
0.0538838 0.150828 0.149401
0.0645055 0.199266 0.24632
0.189494 0.00942206 0.683605
0.127289 -0.0518584 0.615998
0.0440199 0.0147482 0.283171
0.0634125 0.0552774 0.36954
0.188887 0.19691 0.258075
0.0645055 0.199266 0.24632
0.0538835 0.87811 0.879186
0.0388945 0.938143 0.823719
0.0865269 0.459871 0.191525
0.0178314 0.497747 0.261293
0.0539788 0.0987254 0.218214
0.122818 0.104117 0.283563
0.140544 0.265446 0.466678
0.132246 0.21944 0.367068
0.612993 0.398895 0.428195
0.61056 0.402628 0.328463
0.0634125 0.0552774 0.36954
0.152714 0.113206 0.377887
0.0388947 0.21086 0.823719
0.120278 0.25353 0.80621
0.0812738 0.0916854 0.54975
0.113133 0.196028 0.527607
0.148935 0.101733 0.467726
0.0812738 0.0916854 0.54975
0.687222 0.0651376 0.491341
0.623059 0.0485392 0.541049
0.332994 0.354995 0.323389
0.311566 0.282435 0.310585
0.359291 0.565378 0.309646
0.335897 0.639749 0.248558
0.0959435 0.349123 0.484847
0.0783821 0.297125 0.41252
0.343536 0.0733316 0.699187
0.295356 0.0298262 0.625612
0.15234 0.324715 0.37849
0.123066 0.371494 0.290721
0.11083 0.457404 0.0794392
0.104146 0.530371 0.0330422
0.0388947 0.21086 0.823719
0.0968436 0.152722 0.795794
0.0538833 0.150827 0.879187
0.0388947 0.21086 0.823719
0.0846803 0.603374 0.278602
0.122783 0.591279 0.358461
0.202431 0.662202 0.389125
0.0856602 0.67287 0.425558
0.0703826 0.262241 0.70456
0.0911274 0.324935 0.757007
0.0703826 0.262241 0.70456
0.0941909 0.333818 0.654618
0.0703826 0.262241 0.70456
0.155405 0.203998 0.713144
0.00571633 0.233516 0.369748
0.0783821 0.297125 0.41252
0.0388947 0.938143 0.0939335
0.120278 0.980813 0.076425
-0.00839096 0.492157 0.343762
0.0178314 0.497747 0.261293
0.0388947 0.938143 0.0939335
0.0968436 0.880005 0.0660083
0.0538835 0.87811 0.149401
0.0388947 0.938143 0.0939335
0.169317 0.549452 0.616953
0.0863695 0.5061 0.673442
0.06877 0.452205 0.311591
0.0681901 0.521545 0.35275
0.687206 0.407294 0.597193
0.667998 0.509174 0.631206
0.0864086 0.621312 0.534319
0.0856602 0.67287 0.425558
0.163563 0.715821 0.516688
0.0856602 0.67287 0.425558
0.188887 0.19691 0.98786
0.0645054 0.199266 0.976105
0.135738 0.207025 0.894176
0.0645054 0.199266 0.976105
0.254072 0.425911 0.437817
0.290665 0.485842 0.38978
0.0969483 0.124516 0.706624
0.155405 0.203998 0.713144
0.232842 0.275238 0.358908
0.235025 0.241636 0.452896
0.132246 0.21944 0.367068
0.0783821 0.297125 0.41252
0.140544 0.265446 0.466678
0.0783821 0.297125 0.41252
0.609736 0.256884 0.67105
0.615835 0.288543 0.591348
0.139216 0.0327974 0.60326
0.0583479 0.0387656 0.658886
0.0240086 0.549135 0.543881
0.0631868 0.562983 0.608569
0.623838 0.614297 0.503243
0.626749 0.563196 0.426262
0.432147 0.0740003 0.228906
0.350662 0.114793 0.184377
0.0645054 0.199266 0.976105
0.132725 0.28574 0.956311
0.0404841 0.451287 0.107956
0.11083 0.457404 0.0794392
0.28801 0.374824 0.623902
0.330042 0.338859 0.542643
0.331362 0.272065 0.500015
0.31522 0.333057 0.418139
0.0645054 0.199266 0.976105
0.122818 0.104117 1.01335
0.139216 0.0327974 0.60326
0.0812738 0.0916854 0.54975
0.113133 0.196028 0.527607
0.120321 0.251503 0.614137
0.0941909 0.333818 0.654618
0.120321 0.251503 0.614137
0.223914 0.0862647 0.418656
0.240871 0.165227 0.361133
0.16242 0.754528 0.242359
0.120618 0.691674 0.309184
0.623838 0.614297 0.503243
0.689515 0.584638 0.572098
0.202431 0.662202 0.389125
0.120618 0.691674 0.309184
0.0783821 0.297125 0.41252
0.0122024 0.346351 0.440753
0.0645054 0.199266 0.976105
0.0883515 0.281475 1.03044
0.406321 0.355071 0.451592
0.410442 0.393758 0.363943
0.0539785 0.0987252 0.947999
0.0645054 0.199266 0.976105
0.0689889 0.352885 0.199774
0.0865269 0.459871 0.191525
0.120278 0.25353 0.0764249
0.0968437 0.152722 0.0660082
0.183368 0.432218 0.631432
0.19774 0.478086 0.553999
0.152492 0.0699659 0.043735
0.0968437 0.152722 0.0660082
0.155328 0.536588 0.187178
0.0865269 0.459871 0.191525
0.112073 0.385416 0.133484
0.0865269 0.459871 0.191525
0.197824 0.460176 0.248133
0.0865269 0.459871 0.191525
0.0538833 0.150827 0.879187
0.0645054 0.199266 0.976105
0.546793 0.64331 0.234757
0.528602 0.610781 0.146753
0.69595 0.422921 0.0627046
0.677893 0.325391 0.0290159
0.135739 0.207025 0.164391
0.120278 0.25353 0.0764249
0.0458265 0.0711371 0.0372872
0.092669 -0.00612372 0.100363
0.625278 0.702447 0.728977
0.698468 0.732358 0.659507
0.178228 0.0421319 0.151118
0.092669 -0.00612372 0.100363
0.183368 0.432218 0.631432
0.161384 0.402441 0.534915
0.0121153 0.502879 0.608803
0.0631868 0.562983 0.608569
0.754154 0.716888 0.5212
0.66439 0.689236 0.482913
0.188887 0.924193 0.98786
0.0645055 0.926549 0.976105
0.135739 0.934308 0.894177
0.0645055 0.926549 0.976105
0.132246 0.21944 0.367068
0.152714 0.113206 0.377887
0.644963 0.390919 0.250047
0.648549 0.307307 0.3061
0.687222 0.0651376 0.491341
0.623207 0.0983361 0.454106
0.132246 0.21944 0.367068
0.165339 0.287514 0.303681
0.132246 0.21944 0.367068
0.232842 0.275238 0.358908
0.0645055 0.926549 0.976105
0.132724 1.01302 0.956311
0.656311 0.0417814 0.3206
0.738212 0.102193 0.291291
0.156623 0.305676 0.710934
0.0941909 0.333818 0.654618
0.507517 0.223067 0.363464
0.559109 0.221916 0.269237
0.0645055 0.926549 0.976105
0.122818 0.8314 1.01335
0.197824 0.460176 0.248133
0.155328 0.536588 0.187178
0.162527 0.633378 0.146223
0.0729931 0.57759 0.185478
0.284368 0.573671 0.578934
0.328195 0.558701 0.674589
0.623838 0.614297 0.503243
0.560441 0.54986 0.489828
0.199582 0.493489 0.728988
0.183368 0.432218 0.631432
0.177263 0.33234 0.624799
0.183368 0.432218 0.631432
0.542338 0.576893 0.334531
0.560595 0.702248 0.335125
0.691515 0.218211 0.56095
0.666093 0.220485 0.474384
0.0645055 0.926549 0.976105
0.0883514 1.00876 1.03044
0.119615 0.67339 0.00868199
0.190948 0.604133 0.0356445
0.0959435 0.349123 0.484847
0.0122024 0.346351 0.440753
0.169317 0.549452 0.616953
0.108663 0.505071 0.518918
0.128388 0.507322 0.412545
0.108663 0.505071 0.518918
0.0338937 0.173641 0.633439
-0.0331304 0.0788971 0.589774
0.108663 0.505071 0.518918
0.19774 0.478086 0.553999
0.481212 0.0872216 0.166733
0.518917 0.0397255 0.109384
0.0539787 0.826008 0.947999
0.0645055 0.926549 0.976105
0.0538835 0.87811 0.879186
0.0645055 0.926549 0.976105
0.0283327 0.254359 0.48989
0.00571633 0.233516 0.369748
0.687206 0.407294 0.597193
0.659729 0.328231 0.66991
0.181033 0.112086 0.691713
0.155405 0.203998 0.713144
0.258538 0.171912 0.690133
0.155405 0.203998 0.713144
0.258538 0.171912 0.690133
0.205948 0.211798 0.619393
0.18305 0.440001 0.363466
0.128388 0.507322 0.412545
0.163563 0.715821 0.516688
0.234828 0.740837 0.448396
0.188887 0.924193 0.258075
0.0645054 0.926549 0.24632
0.428421 0.164077 0.212961
0.45965 0.177992 0.292146
0.254514 0.387798 0.525353
0.161384 0.402441 0.534915
0.510905 0.300165 0.568552
0.507229 0.26597 0.659808
0.177263 0.33234 0.624799
0.14624 0.311265 0.547548
0.169317 0.549452 0.616953
0.181403 0.618411 0.545195
0.169317 0.549452 0.616953
0.181512 0.632499 0.674491
0.247505 0.561424 0.674658
0.169317 0.549452 0.616953
0.135739 0.934308 0.164392
0.0645054 0.926549 0.24632
0.247505 0.561424 0.674658
0.199582 0.493489 0.728988
0.0645054 0.926549 0.24632
0.132725 1.01302 0.226526
0.199582 0.493489 0.728988
0.279909 0.551908 0.742198
0.199582 0.493489 0.728988
0.277032 0.482559 0.646962
0.560441 0.54986 0.489828
0.641704 0.491971 0.513431
0.132725 0.28574 0.226526
0.123066 0.371494 0.290721
0.570897 0.00460815 0.241659
0.562203 0.0720996 0.193909
0.330651 0.218288 0.402897
0.295677 0.133252 0.461099
0.148935 0.101733 0.467726
0.158535 0.0279777 0.41343
0.148935 0.101733 0.467726
0.174975 0.126586 0.543249
0.148935 0.101733 0.467726
0.206665 0.160052 0.451559
0.205948 0.211798 0.619393
0.142517 0.149581 0.619418
0.181033 0.112086 0.691713
0.142517 0.149581 0.619418
0.06877 0.452205 0.311591
0.109562 0.520125 0.276536
0.0645054 0.926549 0.24632
0.122818 0.8314 0.283563
0.0959435 0.349123 0.484847
0.161384 0.402441 0.534915
0.0283327 0.254359 0.48989
0.113133 0.196028 0.527607
0.738212 0.102193 0.291291
0.679444 0.195511 0.268175
0.038895 0.21086 0.0939337
0.0968437 0.152722 0.0660082
0.369583 0.667842 0.370179
0.396538 0.591759 0.371242
0.135739 0.207025 0.164391
0.226489 0.267171 0.161447
0.103866 0.0876786 0.124558
0.178228 0.0421319 0.151118
0.371759 0.440602 0.134645
0.378746 0.521668 0.221916
0.0645054 0.926549 0.24632
0.0883515 1.00876 0.300651
0.240871 0.165227 0.361133
0.188887 0.19691 0.258075
0.176111 0.467847 0.146405
0.161789 0.536615 0.101105
0.176111 0.467847 0.146405
0.185056 0.435919 0.0776874
0.197824 0.460176 0.248133
0.109562 0.520125 0.276536
0.72898 0.601657 0.467655
0.689515 0.584638 0.572098
0.390706 0.422938 0.266439
0.357584 0.329323 0.233906
0.163215 0.351233 0.0692125
0.222936 0.268926 0.0451748
0.0539782 0.826008 0.218214
0.0645054 0.926549 0.24632
0.0538835 0.87811 0.149401
0.0645054 0.926549 0.24632
0.61056 0.402628 0.328463
0.707436 0.397017 0.362323
0.218164 0.0457523 0.325982
0.158535 0.0279777 0.41343
0.0121153 0.502879 0.608803
0.0706775 0.421499 0.603572
0.189494 0.00942206 0.683605
0.139216 0.0327974 0.60326
0.243659 0.0891253 0.0993584
0.178228 0.0421319 0.151118
0.28457 0.429699 0.322377
0.353897 0.486768 0.320509
0.192737 0.0997251 0.221311
0.178228 0.0421319 0.151118
0.424963 0.523077 0.617242
0.432298 0.456888 0.55865
0.162527 0.633378 0.146223
0.161789 0.536615 0.101105
0.190948 0.604133 0.0356445
0.161789 0.536615 0.101105
0.506718 0.099743 0.458218
0.563926 0.17495 0.462676
0.218213 0.546327 0.376715
0.128388 0.507322 0.412545
0.0417904 1.0581 0.344231
0.0883515 1.00876 0.300651
0.155328 0.536588 0.187178
0.161789 0.536615 0.101105
0.0417904 1.0581 0.344231
0.0783822 1.02441 0.41252
0.189494 0.00942206 0.683605
0.263622 0.0755946 0.736768
0.0822046 0.599121 -0.00531196
0.0633762 0.608661 0.0845546
[...]
CELL_DATA 11991

SCALARS kn double 1
LOOKUP_TABLE default
4.36718e+06
4.13233e+06
4.90563e+06
4.84049e+06
5.11843e+06
5.30177e+06
4.39341e+06
6.05668e+06
3.99727e+06
4.96613e+06
4.52156e+06
5.20122e+06
4.79555e+06
5.05858e+06
4.36718e+06
5.32977e+06
5.05323e+06
4.01021e+06
3.69927e+06
4.41118e+06
4.36382e+06
4.44572e+06
4.91786e+06
4.18099e+06
4.13233e+06
3.99727e+06
4.28671e+06
5.9275e+06
3.99645e+06
4.37044e+06
4.99894e+06
4.88267e+06
4.36718e+06
4.19101e+06
4.13233e+06
3.99727e+06
5.23191e+06
3.92097e+06
5.20879e+06
5.80118e+06
6.16643e+06
6.05668e+06
5.11144e+06
3.99537e+06
4.719e+06
4.83152e+06
4.85911e+06
4.25969e+06
4.0841e+06
4.45467e+06
3.71006e+06
4.45841e+06
4.73691e+06
5.31153e+06
3.66339e+06
4.53999e+06
4.76507e+06
5.65359e+06
4.45192e+06
4.98059e+06
4.56519e+06
4.65222e+06
4.74541e+06
4.82535e+06
5.71593e+06
4.21328e+06
4.58729e+06
4.38232e+06
4.8405e+06
5.18847e+06
5.02331e+06
4.26535e+06
4.94095e+06
4.84496e+06
4.47639e+06
6.03447e+06
5.11843e+06
4.52067e+06
4.83363e+06
4.81891e+06
5.31935e+06
4.91586e+06
5.33116e+06
4.98828e+06
3.81463e+06
4.61973e+06
6.05668e+06
5.11144e+06
5.1253e+06
4.72199e+06
3.92499e+06
4.40498e+06
5.53006e+06
5.31153e+06
5.11119e+06
4.28748e+06
5.1073e+06
5.65359e+06
4.96442e+06
5.36838e+06
4.97519e+06
4.39634e+06
5.6098e+06
4.82269e+06
6.12729e+06
4.3493e+06
4.58729e+06
4.97438e+06
4.58282e+06
5.98098e+06
5.11708e+06
5.99694e+06
4.51161e+06
3.96029e+06
4.8405e+06
5.11843e+06
5.99233e+06
5.31433e+06
4.66157e+06
5.35278e+06
4.58373e+06
4.79161e+06
4.61872e+06
6.05668e+06
4.05439e+06
4.57886e+06
4.52759e+06
4.13555e+06
4.62721e+06
4.73434e+06
4.4799e+06
5.11144e+06
4.51497e+06
5.31153e+06
4.57335e+06
5.44306e+06
4.80233e+06
5.14993e+06
3.96988e+06
5.27158e+06
4.46225e+06
4.02734e+06
4.02669e+06
4.27852e+06
4.34742e+06
4.17094e+06
5.65359e+06
4.75318e+06
5.25874e+06
5.38891e+06
4.13233e+06
3.91306e+06
5.11399e+06
4.32072e+06
5.73669e+06
4.58729e+06
5.79435e+06
4.0441e+06
3.68717e+06
5.20026e+06
5.40051e+06
4.93446e+06
5.05186e+06
4.8405e+06
5.11843e+06
4.90518e+06
5.11603e+06
4.57759e+06
4.42966e+06
4.6011e+06
4.2056e+06
4.3675e+06
4.29041e+06
4.99498e+06
4.71007e+06
4.58595e+06
4.97201e+06
3.88453e+06
4.18028e+06
4.086e+06
5.41573e+06
4.2533e+06
4.29586e+06
4.17348e+06
4.49127e+06
4.66033e+06
5.51162e+06
4.73321e+06
3.78554e+06
6.21122e+06
5.57736e+06
3.79625e+06
5.50328e+06
4.76624e+06
5.51197e+06
3.97941e+06
5.74082e+06
5.14257e+06
5.44519e+06
5.97956e+06
5.68927e+06
5.44023e+06
5.95362e+06
5.28535e+06
5.59007e+06
6.08439e+06
3.88453e+06
4.84198e+06
4.82814e+06
5.3225e+06
4.086e+06
4.73321e+06
4.91396e+06
4.54352e+06
4.38944e+06
4.40104e+06
5.67377e+06
4.50991e+06
3.60571e+06
4.53621e+06
4.64129e+06
4.634e+06
4.37527e+06
5.09261e+06
4.73531e+06
4.19013e+06
4.21527e+06
4.6629e+06
4.4665e+06
4.63307e+06
4.66281e+06
3.88453e+06
4.086e+06
5.31603e+06
4.26919e+06
4.2781e+06
4.23104e+06
4.73321e+06
5.54551e+06
4.10697e+06
6.13799e+06
5.54332e+06
4.13338e+06
5.68731e+06
4.48904e+06
5.4475e+06
5.17571e+06
4.55162e+06
5.55541e+06
5.93296e+06
4.70508e+06
5.00426e+06
4.30399e+06
4.05722e+06
3.99863e+06
5.31401e+06
5.30776e+06
5.1111e+06
5.37816e+06
3.55304e+06
5.49646e+06
5.91206e+06
5.43743e+06
5.59247e+06
4.40616e+06
4.45466e+06
5.344e+06
4.41594e+06
4.11548e+06
4.28267e+06
4.58104e+06
4.09449e+06
5.25761e+06
5.23712e+06
6.04179e+06
5.75495e+06
4.95004e+06
5.40259e+06
4.627e+06
4.25496e+06
5.97956e+06
4.12972e+06
4.45466e+06
5.14982e+06
4.07464e+06
4.70588e+06
4.76257e+06
4.5066e+06
5.33716e+06
5.07288e+06
6.23434e+06
4.754e+06
4.69186e+06
4.841e+06
4.6047e+06
5.2168e+06
4.28293e+06
4.42534e+06
3.87297e+06
5.38993e+06
4.91397e+06
5.68958e+06
4.71959e+06
4.40033e+06
4.537e+06
5.4641e+06
4.1824e+06
5.42777e+06
4.1745e+06
5.03567e+06
3.82422e+06
5.57735e+06
4.65358e+06
5.33442e+06
5.96722e+06
4.70394e+06
5.2234e+06
4.39458e+06
5.59599e+06
5.36232e+06
4.49911e+06
5.3463e+06
5.11871e+06
4.15132e+06
4.51692e+06
3.89576e+06
4.6053e+06
4.95004e+06
4.09859e+06
5.41961e+06
5.97956e+06
4.45466e+06
3.98022e+06
4.62515e+06
4.14945e+06
4.94421e+06
4.48787e+06
4.48722e+06
5.972e+06
4.086e+06
4.83418e+06
3.85342e+06
4.70597e+06
5.95462e+06
5.72301e+06
4.258e+06
4.51897e+06
5.13493e+06
5.6272e+06
6.00464e+06
5.64431e+06
4.71032e+06
5.80041e+06
5.62322e+06
4.74149e+06
5.98128e+06
4.43107e+06
4.95004e+06
5.50582e+06
5.22876e+06
4.36036e+06
5.15678e+06
5.97956e+06
4.41513e+06
4.5856e+06
5.4599e+06
4.6307e+06
4.96226e+06
3.8301e+06
4.50405e+06
5.59695e+06
4.1544e+06
5.45629e+06
5.2297e+06
3.97911e+06
4.89506e+06
5.85876e+06
4.74183e+06
4.58561e+06
4.85109e+06
4.58729e+06
4.93717e+06
5.11993e+06
4.96897e+06
4.86271e+06
4.14247e+06
5.31935e+06
4.75035e+06
5.45991e+06
4.66966e+06
4.30765e+06
4.996e+06
4.13455e+06
4.65404e+06
5.62727e+06
4.20105e+06
3.97791e+06
4.15124e+06
4.17867e+06
4.51294e+06
5.01e+06
5.41321e+06
5.7154e+06
4.40957e+06
4.58561e+06
5.94174e+06
5.57876e+06
4.15832e+06
5.52663e+06
3.6452e+06
3.83909e+06
4.79923e+06
4.44287e+06
4.49672e+06
5.86242e+06
6.227e+06
4.5657e+06
5.48749e+06
4.43834e+06
4.86271e+06
5.31935e+06
5.24498e+06
4.26019e+06
5.45991e+06
5.9295e+06
5.86341e+06
5.35716e+06
5.55693e+06
5.74745e+06
5.20603e+06
3.93054e+06
4.5856e+06
5.70058e+06
4.86271e+06
4.66509e+06
4.94007e+06
5.31935e+06
4.24539e+06
5.32572e+06
5.4599e+06
4.64417e+06
4.53808e+06
4.55642e+06
4.67729e+06
4.26849e+06
4.52359e+06
4.97936e+06
4.53894e+06
5.71995e+06
4.85645e+06
4.94835e+06
5.25556e+06
3.94974e+06
5.18104e+06
5.56754e+06
5.48803e+06
4.35615e+06
4.38651e+06
5.06862e+06
3.89807e+06
4.08808e+06
4.26785e+06
4.47162e+06
4.4085e+06
4.29741e+06
4.67729e+06
3.94974e+06
4.17264e+06
4.34515e+06
4.52606e+06
4.7349e+06
4.44665e+06
4.4785e+06
4.84275e+06
4.93039e+06
5.73834e+06
5.37133e+06
4.95393e+06
4.05767e+06
5.91655e+06
5.75784e+06
5.11891e+06
4.29378e+06
4.93569e+06
5.16067e+06
3.97256e+06
5.48333e+06
5.51278e+06
5.86001e+06
3.82112e+06
5.16696e+06
5.25455e+06
4.70782e+06
4.78756e+06
5.63419e+06
4.67729e+06
4.699e+06
4.56725e+06
4.77135e+06
4.72121e+06
5.36884e+06
5.29702e+06
4.55727e+06
4.45471e+06
4.03903e+06
3.94974e+06
5.85989e+06
5.30525e+06
4.8827e+06
6.03846e+06
5.09084e+06
4.67954e+06
4.441e+06
5.17224e+06
4.73709e+06
5.0835e+06
4.39508e+06
4.42021e+06
4.65205e+06
4.01077e+06
3.71006e+06
5.01779e+06
5.29192e+06
6.17987e+06
4.36167e+06
4.07256e+06
4.64911e+06
4.70886e+06
4.12176e+06
4.66778e+06
5.23784e+06
4.51424e+06
4.83686e+06
5.92092e+06
5.20919e+06
5.26037e+06
4.8243e+06
4.63764e+06
3.85608e+06
4.85227e+06
3.85263e+06
4.42141e+06
4.36111e+06
4.441e+06
5.34383e+06
4.14779e+06
3.71006e+06
4.441e+06
5.96041e+06
3.71006e+06
5.47482e+06
4.43867e+06
6.04604e+06
5.80161e+06
5.19919e+06
5.49212e+06
4.48896e+06
3.79401e+06
4.47949e+06
5.27366e+06
5.0306e+06
4.75213e+06
4.85198e+06
3.87634e+06
4.21057e+06
4.11267e+06
4.30974e+06
4.08615e+06
4.16085e+06
4.11267e+06
4.61148e+06
3.75597e+06
4.33418e+06
3.83165e+06
5.56693e+06
5.05228e+06
5.16908e+06
4.51666e+06
5.94067e+06
5.34472e+06
5.41312e+06
4.11267e+06
5.19915e+06
4.62925e+06
4.8627e+06
4.33418e+06
4.74208e+06
5.02342e+06
4.22638e+06
5.00824e+06
4.32665e+06
4.5915e+06
4.25078e+06
4.68741e+06
5.32774e+06
4.49478e+06
4.11745e+06
4.81687e+06
4.106e+06
4.5309e+06
3.89318e+06
4.11267e+06
5.57296e+06
4.60995e+06
5.42711e+06
4.33418e+06
5.40378e+06
5.44034e+06
5.26128e+06
5.65978e+06
5.08896e+06
5.59019e+06
4.89441e+06
4.36813e+06
4.82149e+06
4.1055e+06
4.54024e+06
5.76118e+06
4.52329e+06
3.96914e+06
4.309e+06
4.51961e+06
4.8679e+06
4.21528e+06
4.99284e+06
3.7636e+06
5.71847e+06
3.88301e+06
4.31629e+06
4.5044e+06
3.87203e+06
5.04252e+06
5.41589e+06
5.48048e+06
5.51808e+06
4.10083e+06
4.63713e+06
5.94013e+06
4.82892e+06
6.11503e+06
6.21347e+06
5.10517e+06
4.82679e+06
4.81643e+06
4.45315e+06
4.71941e+06
5.3229e+06
5.23948e+06
3.7636e+06
6.01548e+06
4.67728e+06
4.5044e+06
4.82892e+06
5.78898e+06
4.81642e+06
3.7636e+06
5.27214e+06
5.26463e+06
4.5044e+06
4.87391e+06
5.77706e+06
4.43475e+06
5.02838e+06
5.11608e+06
4.08606e+06
5.83331e+06
4.01013e+06
5.33232e+06
4.15979e+06
3.67507e+06
4.56756e+06
5.95942e+06
4.21463e+06
3.6566e+06
5.38429e+06
5.18962e+06
4.81402e+06
5.02125e+06
6.05092e+06
4.47022e+06
4.82892e+06
4.81303e+06
4.70453e+06
4.81642e+06
3.7636e+06
4.5044e+06
4.82892e+06
5.34111e+06
5.61606e+06
5.37849e+06
4.94206e+06
5.069e+06
4.81642e+06
4.72794e+06
5.79215e+06
4.85326e+06
3.67446e+06
4.37638e+06
4.57768e+06
5.29864e+06
4.47433e+06
4.18339e+06
5.18031e+06
5.94491e+06
4.57683e+06
3.65213e+06
5.02144e+06
5.23762e+06
4.28567e+06
4.30142e+06
4.41075e+06
3.74476e+06
5.72131e+06
4.55063e+06
4.75355e+06
5.1389e+06
6.00343e+06
4.82024e+06
4.51083e+06
4.49e+06
3.81463e+06
5.09291e+06
4.67879e+06
4.07598e+06
4.57759e+06
4.04009e+06
6.12723e+06
4.67857e+06
5.77079e+06
4.66297e+06
3.81463e+06
5.04133e+06
4.57759e+06
4.85074e+06
3.95288e+06
5.87857e+06
4.77352e+06
5.18994e+06
5.38412e+06
5.25954e+06
4.43477e+06
4.29144e+06
5.44359e+06
4.58169e+06
5.44006e+06
5.6876e+06
5.9013e+06
5.50513e+06
4.40767e+06
5.63827e+06
3.99727e+06
5.27788e+06
5.98508e+06
4.87521e+06
5.92967e+06
5.52105e+06
4.09697e+06
3.81463e+06
4.57759e+06
4.4902e+06
4.79913e+06
3.56307e+06
4.65533e+06
4.65439e+06
4.17984e+06
4.36282e+06
4.46619e+06
5.4578e+06
3.7559e+06
4.30245e+06
5.07356e+06
4.95389e+06
5.04302e+06
4.9278e+06
4.90305e+06
4.14926e+06
4.85114e+06
4.46619e+06
4.64556e+06
4.10496e+06
3.7559e+06
5.76493e+06
4.95389e+06
4.74005e+06
4.46619e+06
4.78046e+06
3.7559e+06
3.78679e+06
4.95389e+06
3.91225e+06
4.82362e+06
4.91683e+06
4.45964e+06
5.88452e+06
5.11312e+06
3.77899e+06
4.46619e+06
4.46246e+06
4.77045e+06
5.04978e+06
5.98283e+06
4.1286e+06
5.16904e+06
4.22579e+06
3.7559e+06
5.40396e+06
4.95389e+06
4.10083e+06
4.6683e+06
4.96613e+06
4.4436e+06
4.6494e+06
5.60885e+06
4.31972e+06
4.49005e+06
3.84245e+06
4.265e+06
4.21921e+06
5.28097e+06
6.04546e+06
4.10083e+06
4.96613e+06
4.97523e+06
4.12619e+06
4.17973e+06
5.21775e+06
5.26884e+06
4.10083e+06
5.34686e+06
4.96613e+06
5.91978e+06
4.59785e+06
5.54759e+06
4.40967e+06
5.08066e+06
4.95824e+06
5.06157e+06
5.329e+06
3.93736e+06
5.70317e+06
4.7372e+06
4.74722e+06
4.32039e+06
4.10309e+06
5.36901e+06
4.54024e+06
4.15979e+06
4.77805e+06
5.58014e+06
4.60474e+06
6.06026e+06
4.61618e+06
5.13773e+06
4.35403e+06
5.24372e+06
5.20119e+06
4.22017e+06
4.91598e+06
5.56764e+06
4.67315e+06
5.42124e+06
4.28495e+06
4.85654e+06
4.80168e+06
5.4551e+06
4.3834e+06
4.62267e+06
5.44287e+06
4.47717e+06
4.28267e+06
4.73321e+06
4.13516e+06
3.62826e+06
4.3569e+06
5.50231e+06
5.27126e+06
4.96645e+06
5.65203e+06
5.02747e+06
5.4567e+06
5.70317e+06
4.51786e+06
4.31104e+06
4.69896e+06
5.15805e+06
4.81895e+06
4.99642e+06
4.95271e+06
5.11007e+06
5.08392e+06
4.44957e+06
4.18028e+06
4.54024e+06
4.17671e+06
4.16257e+06
5.66902e+06
3.99721e+06
4.15979e+06
4.52967e+06
4.06862e+06
5.44287e+06
4.19866e+06
4.73043e+06
5.82497e+06
4.61054e+06
4.36458e+06
4.7018e+06
4.53354e+06
4.759e+06
4.80728e+06
4.17941e+06
4.96542e+06
5.70317e+06
3.94266e+06
5.6777e+06
5.34984e+06
4.92364e+06
4.22652e+06
3.76181e+06
5.28185e+06
5.12428e+06
4.98015e+06
5.52346e+06
4.23335e+06
4.14173e+06
4.54024e+06
4.52208e+06
4.72207e+06
4.44143e+06
4.15979e+06
4.35296e+06
4.76534e+06
5.44287e+06
4.11458e+06
5.39268e+06
4.21528e+06
4.55512e+06
4.07464e+06
4.33176e+06
4.31497e+06
4.52975e+06
4.51709e+06
5.75985e+06
4.21528e+06
4.85681e+06
3.81392e+06
4.5364e+06
5.6685e+06
4.07464e+06
5.49948e+06
4.54809e+06
5.15143e+06
4.41408e+06
4.86018e+06
4.52762e+06
5.6023e+06
4.61693e+06
4.63321e+06
4.21528e+06
4.07464e+06
4.98688e+06
4.8877e+06
4.43456e+06
5.23929e+06
5.04451e+06
4.26979e+06
5.97246e+06
4.88936e+06
5.1838e+06
4.32794e+06
5.29701e+06
5.86016e+06
4.58324e+06
4.65352e+06
5.65977e+06
4.26337e+06
4.3631e+06
5.36946e+06
5.77379e+06
4.15927e+06
3.9607e+06
3.83439e+06
5.04253e+06
4.36717e+06
4.27581e+06
4.31708e+06
5.0594e+06
5.71031e+06
4.22551e+06
4.95915e+06
5.19564e+06
4.83037e+06
4.35445e+06
4.91303e+06
6.11503e+06
5.60843e+06
4.05771e+06
4.91098e+06
5.24461e+06
4.30302e+06
5.10971e+06
4.88936e+06
5.80352e+06
5.70474e+06
5.18914e+06
4.81689e+06
3.72047e+06
5.29701e+06
4.1207e+06
5.65977e+06
4.66097e+06
4.36297e+06
4.51211e+06
4.56626e+06
4.87728e+06
5.31153e+06
5.04253e+06
5.63613e+06
4.32056e+06
4.46625e+06
4.36352e+06
4.90485e+06
5.44287e+06
6.11503e+06
4.07419e+06
4.79865e+06
4.93531e+06
4.36764e+06
4.60776e+06
4.68695e+06
4.88936e+06
5.57441e+06
5.05752e+06
5.29701e+06
5.65977e+06
5.30444e+06
4.38167e+06
3.89637e+06
4.27485e+06
4.39125e+06
3.92254e+06
5.81039e+06
4.2354e+06
4.02888e+06
4.26942e+06
4.55684e+06
3.92697e+06
5.41571e+06
4.58498e+06
4.17086e+06
4.21473e+06
4.72956e+06
5.22945e+06
4.78238e+06
5.7632e+06
4.54963e+06
4.41719e+06
5.08462e+06
4.39497e+06
5.11144e+06
4.95004e+06
4.54006e+06
5.56354e+06
3.83515e+06
4.42385e+06
5.04253e+06
5.1116e+06
4.71962e+06
4.83532e+06
3.76877e+06
5.14528e+06
6.11503e+06
6.16106e+06
5.32462e+06
4.18401e+06
3.39436e+06
6.0102e+06
4.61069e+06
5.28944e+06
4.88936e+06
5.52357e+06
5.68358e+06
5.27906e+06
3.87958e+06
5.29153e+06
4.99134e+06
3.65819e+06
4.08279e+06
4.63033e+06
5.12062e+06
4.89308e+06
5.09281e+06
5.55208e+06
4.18463e+06
4.15384e+06
4.93498e+06
5.65359e+06
5.40882e+06
5.51777e+06
5.87269e+06
4.5917e+06
4.54941e+06
4.08279e+06
3.73511e+06
5.9574e+06
6.13591e+06
4.61054e+06
5.51921e+06
4.65798e+06
4.34604e+06
5.18338e+06
4.46503e+06
4.58682e+06
5.62763e+06
5.36398e+06
5.28675e+06
4.73867e+06
5.03436e+06
3.64621e+06
4.49405e+06
4.91436e+06
4.08071e+06
4.09073e+06
4.90532e+06
4.51734e+06
4.33469e+06
4.86131e+06
4.01219e+06
3.64757e+06
4.68867e+06
5.1774e+06
5.30638e+06
4.71265e+06
4.21473e+06
4.17488e+06
4.3262e+06
5.70864e+06
4.85584e+06
4.08279e+06
4.51427e+06
5.0309e+06
3.79564e+06
4.23381e+06
5.02821e+06
5.23203e+06
5.97524e+06
4.88185e+06
4.12715e+06
4.61054e+06
5.20051e+06
4.12863e+06
4.37896e+06
4.84146e+06
5.90952e+06
5.1094e+06
4.57717e+06
5.42192e+06
5.26987e+06
4.21473e+06
3.88453e+06
4.47997e+06
4.19643e+06
4.61969e+06
4.3262e+06
4.14818e+06
4.14606e+06
4.5322e+06
4.08279e+06
5.4822e+06
5.60255e+06
4.27455e+06
4.4912e+06
3.9937e+06
4.28073e+06
5.00546e+06
4.61054e+06
5.60178e+06
4.76392e+06
4.77588e+06
5.94835e+06
5.5571e+06
4.9745e+06
4.18178e+06
4.50142e+06
5.15092e+06
3.98519e+06
5.07547e+06
4.87697e+06
3.70995e+06
4.63856e+06
4.09138e+06
4.54595e+06
4.21473e+06
4.77156e+06
4.75026e+06
4.49663e+06
4.66094e+06
4.76345e+06
4.3262e+06
4.52606e+06
5.94562e+06
5.36948e+06
4.3262e+06
4.77659e+06
3.64746e+06
5.63276e+06
4.30309e+06
5.45568e+06
5.64924e+06
4.06986e+06
5.70317e+06
5.25712e+06
3.92563e+06
4.91158e+06
4.79929e+06
4.39241e+06
4.4735e+06
5.91073e+06
4.80014e+06
4.47496e+06
3.92563e+06
4.52606e+06
5.15678e+06
5.44521e+06
4.8907e+06
3.8128e+06
3.64155e+06
5.05262e+06
5.04392e+06
4.69558e+06
4.5162e+06
5.5798e+06
4.14413e+06
4.05642e+06
5.06083e+06
4.25494e+06
3.92563e+06
4.78448e+06
4.9543e+06
4.66178e+06
5.73285e+06
4.52606e+06
5.57381e+06
3.94973e+06
3.9682e+06
4.78504e+06
4.18115e+06
6.04956e+06
3.99174e+06
3.82529e+06
4.57639e+06
4.35237e+06
5.31147e+06
5.06933e+06
3.79459e+06
4.81697e+06
4.34725e+06
3.99881e+06
3.8569e+06
3.92563e+06
3.6925e+06
4.42054e+06
5.2804e+06
4.19313e+06
6.16379e+06
5.25874e+06
4.75354e+06
4.00334e+06
3.64239e+06
3.7598e+06
4.33418e+06
4.20414e+06
5.23368e+06
5.66978e+06
5.96316e+06
5.62514e+06
4.69553e+06
4.20566e+06
4.56677e+06
5.10342e+06
5.59211e+06
4.25281e+06
5.25874e+06
4.75354e+06
4.58324e+06
4.23854e+06
5.25874e+06
3.82037e+06
4.75354e+06
5.15319e+06
5.01458e+06
4.66712e+06
5.08873e+06
4.18629e+06
3.72613e+06
4.88114e+06
4.25881e+06
3.6949e+06
4.8855e+06
4.83713e+06
5.67555e+06
4.80274e+06
4.32627e+06
4.8679e+06
5.16405e+06
4.58282e+06
4.21328e+06
3.80262e+06
4.17045e+06
4.42046e+06
4.72529e+06
4.6407e+06
5.75568e+06
4.14287e+06
5.00064e+06
4.7453e+06
4.90485e+06
4.30864e+06
5.01458e+06
4.62374e+06
4.58282e+06
4.441e+06
5.35665e+06
4.863e+06
4.21328e+06
5.49598e+06
4.66681e+06
4.91916e+06
4.66191e+06
4.90485e+06
5.45245e+06
5.19014e+06
4.40086e+06
4.30864e+06
4.46637e+06
5.13567e+06
4.70705e+06
5.93165e+06
5.31868e+06
5.01458e+06
4.58282e+06
4.68044e+06
5.59952e+06
4.92776e+06
3.93417e+06
4.21328e+06
4.35071e+06
4.42085e+06
4.90383e+06
4.80644e+06
4.42086e+06
5.58047e+06
4.94184e+06
4.90485e+06
4.25089e+06
4.30864e+06
5.56166e+06
4.13405e+06
4.95967e+06
5.01458e+06
5.56955e+06
4.30864e+06
6.05476e+06
4.39341e+06
6.05476e+06
5.55709e+06
5.05858e+06
5.15143e+06
4.39341e+06
6.05476e+06
5.55709e+06
5.05858e+06
5.15143e+06
4.39341e+06
6.05476e+06
5.55709e+06
5.05858e+06
5.15143e+06
3.8128e+06
4.30974e+06
3.66339e+06
3.8128e+06
4.30974e+06
3.66339e+06
3.8128e+06
4.30974e+06
3.66339e+06
5.10971e+06
4.2533e+06
4.89308e+06
5.7632e+06
5.10971e+06
4.2533e+06
4.89308e+06
5.7632e+06
5.10971e+06
4.2533e+06
4.89308e+06
5.7632e+06
4.03272e+06
4.33712e+06
4.03272e+06
4.33712e+06
4.03272e+06
4.33712e+06
4.03272e+06
4.33712e+06
5.28535e+06
6.05092e+06
4.87391e+06
5.61606e+06
5.28535e+06
6.05092e+06
4.87391e+06
5.61606e+06
5.28535e+06
6.05092e+06
4.87391e+06
5.61606e+06
4.17264e+06
4.54006e+06
4.05722e+06
4.10309e+06
4.17264e+06
4.54006e+06
4.05722e+06
4.10309e+06
4.17264e+06
4.54006e+06
4.05722e+06
4.10309e+06
4.95944e+06
3.858e+06
3.94266e+06
4.95944e+06
3.858e+06
3.94266e+06
4.95944e+06
3.858e+06
3.94266e+06
4.95944e+06
3.858e+06
4.34745e+06
4.52156e+06
3.92254e+06
4.34745e+06
4.52156e+06
3.92254e+06
4.34745e+06
4.52156e+06
3.92254e+06
4.34745e+06
5.32976e+06
4.45192e+06
5.05322e+06
4.5917e+06
5.32976e+06
4.45192e+06
5.05322e+06
4.5917e+06
5.32976e+06
4.45192e+06
5.05322e+06
4.5917e+06
4.93717e+06
5.54759e+06
4.69896e+06
4.93717e+06
5.54759e+06
4.69896e+06
4.93717e+06
5.54759e+06
4.69896e+06
5.18847e+06
5.14256e+06
4.07418e+06
4.66177e+06
5.18847e+06
5.14256e+06
4.07418e+06
4.66177e+06
5.18847e+06
5.14256e+06
4.07418e+06
4.66177e+06
5.80118e+06
4.4795e+06
5.94835e+06
5.329e+06
6.16643e+06
5.52346e+06
5.24024e+06
5.92751e+06
5.80118e+06
4.4795e+06
5.94835e+06
5.329e+06
6.16643e+06
5.52346e+06
5.24024e+06
5.92751e+06
5.80118e+06
4.4795e+06
5.94835e+06
5.329e+06
6.16643e+06
5.52346e+06
5.24024e+06
5.92751e+06
5.24024e+06
4.37044e+06
3.99646e+06
4.99894e+06
4.37044e+06
3.99646e+06
4.99894e+06
4.37044e+06
3.99646e+06
4.99894e+06
4.58497e+06
4.29378e+06
3.64757e+06
4.58497e+06
4.29378e+06
3.64757e+06
4.58497e+06
4.29378e+06
3.64757e+06
4.19013e+06
5.36838e+06
4.43866e+06
4.19013e+06
5.36838e+06
4.43866e+06
4.19013e+06
5.36838e+06
4.43866e+06
4.20105e+06
4.57639e+06
5.11007e+06
5.369e+06
4.20105e+06
4.57639e+06
5.11007e+06
5.369e+06
4.20105e+06
4.57639e+06
5.11007e+06
5.369e+06
5.06933e+06
4.47639e+06
4.84496e+06
6.03447e+06
4.66297e+06
5.06933e+06
4.47639e+06
4.84496e+06
6.03447e+06
4.66297e+06
5.06933e+06
4.47639e+06
4.84496e+06
6.03447e+06
4.66297e+06
4.35445e+06
4.35445e+06
4.35445e+06
3.92097e+06
4.18178e+06
4.27485e+06
4.16085e+06
3.92097e+06
4.18178e+06
4.27485e+06
4.16085e+06
3.92097e+06
4.18178e+06
4.27485e+06
4.16085e+06
4.17094e+06
4.65352e+06
4.17094e+06
4.65352e+06
4.17094e+06
4.65352e+06
5.12179e+06
5.75568e+06
5.12179e+06
4.49121e+06
5.75568e+06
5.12179e+06
4.49121e+06
5.75568e+06
5.12179e+06
4.49121e+06
5.18212e+06
4.18401e+06
4.3834e+06
5.18212e+06
4.18401e+06
4.3834e+06
5.18212e+06
4.18401e+06
4.3834e+06
5.18211e+06
4.53219e+06
5.1212e+06
5.41312e+06
5.86748e+06
5.33116e+06
4.53219e+06
5.1212e+06
5.41312e+06
5.86748e+06
5.33116e+06
4.53219e+06
5.1212e+06
5.41312e+06
5.86748e+06
5.33116e+06
5.1212e+06
5.86748e+06
4.36382e+06
4.8591e+06
4.25969e+06
4.15927e+06
4.36382e+06
4.8591e+06
4.25969e+06
4.15927e+06
4.36382e+06
4.8591e+06
4.25969e+06
4.15927e+06
4.56343e+06
5.20051e+06
4.56343e+06
5.23191e+06
5.20051e+06
4.56343e+06
5.23191e+06
5.20051e+06
4.56343e+06
5.23191e+06
3.83165e+06
4.67857e+06
4.19313e+06
4.28671e+06
3.83165e+06
4.67857e+06
4.19313e+06
4.28671e+06
3.83165e+06
4.67857e+06
4.19313e+06
4.28671e+06
5.11708e+06
5.4822e+06
5.98098e+06
4.51161e+06
5.11708e+06
5.4822e+06
5.98098e+06
4.51161e+06
5.11708e+06
5.4822e+06
5.98098e+06
4.51161e+06
3.89807e+06
3.43484e+06
3.99174e+06
3.89807e+06
3.43484e+06
3.99174e+06
3.89807e+06
3.43484e+06
3.99174e+06
3.43484e+06
4.26338e+06
4.75318e+06
4.26338e+06