# vtk DataFile Version 3.0.
comment
ASCII

DATASET POLYDATA
POINTS 3760 double
0.686423 0.0989191 0.71083
0.331362 0.272065 0.500015
0.61791 0.207498 0.376082
0.177263 0.33234 0.624799
0.325789 0.673467 0.564344
0.574046 0.091809 0.374396
0.627903 0.618943 0.156929
0.483254 0.390864 0.568626
0.135739 0.207025 0.164391
0.334845 0.0433528 0.514673
0.196467 0.379336 0.163817
0.343536 0.0733316 0.699187
0.391107 0.401975 0.743804
0.380915 0.401086 0.597024
0.0822046 0.599121 1.45426
0.408544 0.317209 0.646665
0.390706 0.422938 0.266439
0.506718 0.099743 0.458218
0.282612 0.529202 0.288158
0.656311 0.0417814 0.3206
0.570897 0.00460815 0.241659
0.284368 0.573671 0.578934
1.46935 0.492157 0.343762
0.334501 0.230659 0.622174
0.0959435 0.349123 0.484847
0.331183 0.130421 0.371159
0.00899879 0.347829 0.135826
0.0561727 0.380685 0.0738891
0.16242 0.754528 0.242359
0.06877 0.452205 0.311591
0.577386 0.23371 0.527818
0.317991 0.274623 0.0868541
0.72898 0.601657 0.467655
0.481212 0.0872216 0.166733
0.243659 0.0891253 0.0993584
0.654518 0.244867 0.0696196
0.258538 0.171912 0.690133
0.536429 0.477243 0.0228861
0.55788 0.313053 0.380606
0.112073 0.385416 0.133484
0.295356 0.0298262 0.625612
0.124675 0.126703 0.190022
0.0969483 0.124516 0.706624
0.578142 0.45505 0.254225
0.360435 0.595836 0.124499
0.27586 0.658543 0.150051
0.709943 0.246852 0.118143
0.359291 0.565378 0.309646
0.020077 0.292629 0.0647984
0.0147996 0.35051 0.707664
0.300355 0.0588497 0.397836
0.340942 0.181047 0.28546
0.189494 0.00942206 0.683605
0.262952 0.353399 0.075928
0.162527 0.633378 0.146223
0.405055 0.126033 0.43409
0.0440199 0.0147482 0.283171
0.523824 0.0220916 0.0133867
0.640991 0.0064233 0.179634
0.140544 0.265446 0.466678
0.0279243 0.162436 0.00904861
0.572325 0.360089 0.0108718
0.410528 0.691906 0.120284
0.0759515 0.57207 0.42722
0.489483 0.207323 0.025443
0.687222 0.0651376 0.491341
0.369583 0.667842 0.370179
0.379296 0.236032 0.00374321
0.518917 0.0397255 0.109384
0.227958 0.67003 0.602485
0.176111 0.467847 0.146405
0.63391 0.546987 0.236674
0.227001 0.0749805 0.503261
0.27816 0.523388 0.471662
0.226489 0.267171 0.161447
0.28457 0.429699 0.322377
0.163563 0.715821 0.516688
0.4429 0.630967 0.192334
0.337202 0.229332 0.180707
0.645056 0.181295 0.638891
0.507517 0.223067 0.363464
0.0604938 0.15125 0.337841
0.626963 0.146501 0.537403
0.432147 0.0740003 0.228906
0.353897 0.486768 0.320509
0.370752 0.482437 0.673888
0.447831 0.348402 0.281581
0.748404 0.29596 0.604362
0.414675 0.499508 0.0409019
0.575183 0.733303 0.456945
0.530096 0.478095 0.492413
0.247505 0.561424 0.674658
0.666383 0.483559 0.406546
0.650506 0.686943 0.579763
0.438494 0.208667 0.643495
0.655795 0.659211 0.392616
0.644963 0.390919 0.250047
0.169317 0.549452 0.616953
0.119615 0.67339 0.00868199
0.422262 0.259662 0.458003
0.13456 0.314629 0.145585
0.357584 0.329323 0.233906
0.0836395 0.520873 0.115119
0.738212 0.102193 0.291291
0.203157 0.546923 0.523675
0.223993 0.380281 0.71765
0.148935 0.101733 0.467726
0.260899 0.719536 0.538793
0.192737 0.0997251 0.221311
0.0338937 0.173641 0.633439
0.0121153 0.502879 0.608803
0.328195 0.558701 0.674589
0.744498 0.469817 0.53142
0.254072 0.425911 0.437817
0.602816 0.119638 0.28189
0.0179544 0.605648 0.350873
0.519584 0.129485 0.668287
0.490289 0.472535 0.389168
0.406321 0.355071 0.451592
0.609736 0.256884 0.67105
0.659559 0.618921 0.663349
0.714513 0.0180834 0.245305
0.139216 0.0327974 0.60326
0.371759 0.440602 0.134645
0.612993 0.398895 0.428195
0.687206 0.407294 0.597193
0.0829071 0.405474 0.395862
0.15234 0.324715 0.37849
0.601895 0.184269 0.741405
0.199582 0.493489 0.728988
0.0538838 0.150828 0.149401
0.510905 0.300165 0.568552
0.0703826 0.262241 0.70456
0.103866 0.0876786 0.124558
0.676072 0.325727 0.520209
0.38306 0.350954 0.083864
0.625278 0.702447 0.728977
0.352401 0.480719 0.588291
0.0812738 0.0916854 0.54975
0.414284 0.726073 0.602897
0.18305 0.440001 0.363466
0.381186 0.642912 1.43148
0.366056 0.401926 0.673602
0.421817 0.641398 0.526084
0.0417908 0.330819 0.344232
0.701471 0.119185 0.395003
0.038895 0.21086 0.0939337
1.47709 0.45337 1.41726
0.185056 0.435919 0.0776874
0.410442 0.393758 0.363943
0.270953 0.0266989 0.21667
0.254514 0.387798 0.525353
0.586388 0.412763 0.121924
0.507667 0.146215 0.21552
0.545938 0.085876 0.542822
0.478536 0.617754 0.623679
0.623838 0.614297 0.503243
0.0936111 0.764739 0.464783
0.329219 0.427859 0.398267
0.326693 0.024354 0.10554
0.0102949 0.691221 0.0164855
0.325249 0.337311 0.726734
0.102782 0.605572 0.657078
0.493057 0.585027 0.00893263
0.223914 0.0862647 0.418656
0.240871 0.165227 0.361133
0.316483 0.553676 0.370602
0.191822 0.490486 0.465566
0.0283327 0.254359 0.48989
0.648549 0.307307 0.3061
0.567742 0.677052 0.641922
0.653692 0.12902 0.171712
0.515366 0.24117 0.168645
0.244765 0.283776 0.554766
0.502311 0.535135 0.224776
0.28801 0.374824 0.623902
0.542338 0.576893 0.334531
0.183368 0.432218 0.631432
0.218164 0.0457523 0.325982
0.0689889 0.352885 0.199774
0.301644 0.697153 0.416327
0.275655 0.246665 0.249221
0.754154 0.716888 0.5212
0.536442 0.402283 0.361245
0.288701 0.209965 0.507819
0.600979 0.391911 0.530736
0.218213 0.546327 0.376715
0.594951 0.485848 0.34517
0.0039562 0.586121 0.250437
0.0634125 0.0552774 0.36954
0.460551 0.428118 0.657282
0.472121 0.574131 0.439767
0.326443 0.00688054 0.319345
0.132246 0.21944 0.367068
0.419554 0.0945393 0.528942
0.603768 0.0490688 0.637128
0.73098 0.424506 0.164536
0.423249 0.254753 0.111225
0.0458265 0.0711371 0.0372872
0.315765 0.51902 0.0839102
0.739959 0.561603 1.4297
0.516986 0.467149 0.160697
0.626749 0.563196 0.426262
0.764988 0.0767136 0.463378
0.238891 0.538461 0.0773334
0.557533 0.216519 0.613364
0.0539788 0.0987254 0.218214
0.482755 0.0400826 0.382279
0.667998 0.509174 0.631206
0.290665 0.485842 0.38978
0.460471 0.316091 0.0212308
0.452838 0.4779 0.476969
0.451307 0.439867 0.201089
0.174975 0.126586 0.543249
0.615835 0.288543 0.591348
0.528368 0.406573 0.201465
0.188887 0.19691 0.258075
0.0706775 0.421499 0.603572
0.062386 0.426599 0.483105
1.44461 0.0788971 0.589774
0.330651 0.218288 0.402897
0.418569 0.78439 0.136048
0.0864086 0.621312 0.534319
0.335988 0.661166 0.0614095
0.161384 0.402441 0.534915
0.61056 0.402628 0.328463
0.475438 0.0805059 0.588357
0.181033 0.112086 0.691713
0.0645055 0.199266 0.24632
0.232842 0.275238 0.358908
0.543994 0.359468 0.294068
0.411156 0.568759 0.688596
0.196452 0.171615 0.078834
0.0583479 0.0387656 0.658886
0.280743 0.652938 1.43349
0.565148 0.26655 0.0798815
0.563926 0.17495 0.462676
0.669468 0.689374 0.0947006
0.158535 0.0279777 0.41343
0.330042 0.338859 0.542643
0.507229 0.26597 0.659808
0.469612 0.421239 0.110109
0.219887 0.709857 0.0668371
0.265592 0.443525 0.116068
0.538472 0.659949 0.713778
0.526862 0.630748 0.520344
0.353277 0.681937 0.48426
0.295677 0.133252 0.461099
0.586704 0.310999 0.481318
0.418003 0.255934 0.562517
0.337937 0.606787 0.439851
0.279909 0.551908 0.742198
0.502178 0.38283 0.468875
0.413669 0.640843 0.0543029
0.456563 0.584301 0.102589
0.731502 0.150705 0.509383
0.649507 0.417386 0.695718
0.132725 0.28574 0.226526
0.712089 0.742388 0.422151
0.128388 0.507322 0.412545
0.74906 0.402502 0.2623
0.381307 0.0981734 0.0427972
0.591036 0.0843231 0.759108
0.248635 0.279544 0.67174
0.560441 0.54986 0.489828
0.249886 1.40952 0.29198
0.63276 0.078331 0.107121
0.664729 0.0825253 0.234627
0.700114 0.353884 0.201118
0.465254 0.321864 0.396937
0.367248 0.723578 0.733552
0.235025 0.241636 0.452896
0.166185 0.423267 0.451141
0.559109 0.221916 0.269237
0.528738 0.53177 0.113666
0.202431 0.662202 0.389125
0.69595 0.422921 0.0627046
0.749731 0.300078 0.260871
0.197824 0.460176 0.248133
0.108663 0.505071 0.518918
0.490743 0.677094 0.413046
0.755741 0.377419 0.524071
0.0240086 0.549135 0.543881
0.733695 0.705828 0.339053
0.19774 0.478086 0.553999
0.424963 0.523077 0.617242
0.630079 0.22356 0.161278
0.741402 0.665306 0.171465
0.548557 0.146447 0.114646
0.157544 0.588874 0.458433
0.156623 0.305676 0.710934
0.513984 0.344761 0.0972781
0.503527 0.340217 0.672211
0.0719836 0.15643 0.442872
0.383592 0.00304408 0.199409
0.261097 0.544678 0.174979
0.269946 0.141566 0.576115
0.576964 0.491107 0.428634
0.589155 0.150042 0.205855
0.546793 0.64331 0.234757
0.205948 0.211798 0.619393
0.163215 0.351233 0.0692125
0.704301 0.238484 0.71473
0.155328 0.536588 0.187178
0.624269 0.516694 0.0869806
0.507911 0.748355 0.650686
0.558186 0.690487 0.152181
0.0941909 0.333818 0.654618
0.707985 0.276169 0.185318
0.0801274 0.740302 0.205749
0.725971 0.1991 0.175451
0.428535 0.246991 0.228511
0.347248 0.147633 0.708014
0.351582 0.42592 0.494696
0.294033 0.633166 0.348868
1.45187 0.532993 0.162416
0.658811 0.555547 0.334905
0.528602 0.610781 0.146753
0.437132 0.589147 0.29117
0.441115 0.748785 0.0611529
0.328139 0.0833185 0.271967
0.465024 0.409676 0.755338
0.621551 0.276245 0.741513
0.0846803 0.603374 0.278602
0.380873 0.115688 0.621442
0.0191554 0.653218 0.628087
0.660809 0.501318 1.45424
0.386521 0.0212007 0.408358
0.350662 0.114793 0.184377
0.00571633 0.233516 0.369748
0.0631868 0.562983 0.608569
0.0404841 0.451287 0.107956
0.0263478 0.494385 0.434885
0.670805 0.470327 0.280547
0.222936 0.268926 0.0451748
0.432298 0.456888 0.55865
0.308297 0.447561 0.0147249
0.426381 0.1475 0.71215
0.554025 0.264675 1.44922
0.539164 0.454122 0.572542
0.418013 0.345342 0.536259
0.46478 0.337165 0.18359
0.332994 0.354995 0.323389
0.43909 1.42787 0.30096
0.431201 0.503695 0.319614
0.259265 0.119962 0.266516
0.583173 0.562928 0.589224
0.234828 0.740837 0.448396
0.165339 0.287514 0.303681
0.155405 0.203998 0.713144
0.410975 0.658267 0.436802
0.378746 0.521668 0.221916
0.524847 0.252776 0.453581
0.58508 0.502324 0.17484
0.307669 0.16652 0.0801808
0.689515 0.584638 0.572098
0.691515 0.218211 0.56095
0.113133 0.196028 0.527607
0.20786 0.0598155 0.583995
0.501494 0.670847 0.0786751
0.685775 0.760878 0.0604237
0.122783 0.591279 0.358461
0.31522 0.333057 0.418139
0.142517 0.149581 0.619418
0.0783821 0.297125 0.41252
0.031717 0.665195 0.271855
[...]
POINT_DATA 3760
SCALARS radius double 1
LOOKUP_TABLE default
0.0648882
0.0405109
0.0624625
0.0460597
0.0464504
0.0545224
0.0597931
0.0363104
0.0451638
0.0568436
0.0526859
0.0366284
0.0376885
0.0411395
0.0359974
0.0604665
0.0442169
0.0498438
0.0522695
0.0557777
0.036638
0.0627063
0.0421807
0.0561899
0.0492397
0.0394193
0.0398237
0.0447354
0.0418502
0.0404493
0.0439523
0.0511547
0.0625264
0.0357901
0.0437627
0.0386842
0.0553726
0.0608398
0.057931
0.0374538
0.0617235
0.0399277
0.0436453
0.0500149
0.0549321
0.053557
0.0351756
0.035529
0.0510369
0.0537602
0.0430442
0.0605633
0.0609628
0.0456767
0.063024
0.0579748
0.0360602
0.0500247
0.0570561
0.046746
0.0414706
0.0624367
0.0421133
0.0368578
0.0564782
0.041658
0.0393079
0.0591314
0.0478604
0.0509077
0.0400467
0.0480069
0.044642
0.0560034
0.063791
0.0530688
0.0636513
0.057759
0.0548684
0.0522373
0.0467003
0.0397045
0.0569926
0.0410581
0.0368422
0.0437751
0.0415604
0.0633594
0.0642906
0.0646604
0.0358215
0.0373816
0.048014
0.0596522
0.0522687
0.0574217
0.041296
0.0609031
0.0483788
0.0605938
0.0378824
0.0603211
0.0361392
0.0502254
0.0385508
0.0543565
0.0452746
0.0362439
0.0398428
0.0647592
0.0381628
0.0436195
0.0462673
0.0500514
0.0464758
0.0576348
0.0640658
0.0526674
0.036541
0.0372548
0.0486743
0.0423171
0.0366881
0.0546926
0.0546772
0.0611134
0.0570189
0.0444674
0.059091
0.0621729
0.0452694
0.0585603
0.0485038
0.0390959
0.0516853
0.0492155
0.0630235
0.0443401
0.061785
0.0635251
0.0541022
0.0363839
0.0368951
0.0512065
0.0428776
0.0608353
0.0380329
0.0523922
0.0363884
0.0596469
0.062475
0.0457501
0.0613594
0.0455544
0.0445223
0.0642949
0.0493539
0.0363349
0.0350259
0.0619426
0.0629773
0.0562018
0.0350562
0.0562391
0.0409318
0.0583407
0.0401976
0.0365819
0.0599691
0.0597304
0.0444782
0.0392679
0.0510176
0.0628
0.0597022
0.0595621
0.0646616
0.0543739
0.0604272
0.0481462
0.0480059
0.0389823
0.063349
0.0356282
0.0352651
0.0489673
0.0587578
0.0412125
0.0457952
0.0613909
0.0625387
0.062289
0.0548699
0.0633256
0.0432012
0.056841
0.0439164
0.0587721
0.0519117
0.0430811
0.0567601
0.0352035
0.0432585
0.041902
0.0365681
0.0456724
0.0412209
0.0498769
0.0481544
0.0351783
0.0563471
0.0429896
0.046632
0.038559
0.0487516
0.0373474
0.061589
0.0623217
0.0350901
0.0594956
0.0540808
0.0404486
0.0565442
0.0392179
0.0490684
0.0453723
0.039656
0.0427042
0.0637144
0.0521347
0.0413618
0.0413628
0.0536868
0.0618874
0.0646013
0.054043
0.0452292
0.0430551
0.0470501
0.0387447
0.0390024
0.0481864
0.0592478
0.0532241
0.0351345
0.05067
0.0387898
0.0549558
0.0470523
0.0441581
0.0498554
0.0381617
0.0647406
0.0414295
0.0444262
0.0514537
0.0436954
0.0482712
0.047331
0.0457065
0.0510206
0.0495778
0.0430539
0.0544136
0.042142
0.0416177
0.0454905
0.0398306
0.0414058
0.0367129
0.0514665
0.0479668
0.0353542
0.0607746
0.0456074
0.0589109
0.0638087
0.0514155
0.0643322
0.0628287
0.0458767
0.0434891
0.0361893
0.0460918
0.0371045
0.0445415
0.0587397
0.0638565
0.0631248
0.0516489
0.0465697
0.0413365
0.0367267
0.0524367
0.049897
0.0641318
0.0632548
0.0444205
0.0368087
0.0555183
0.0414366
0.0516455
0.0600448
0.0427115
0.0548724
0.044103
0.0403294
0.0423103
0.0384565
0.0494406
0.0413291
0.0486115
0.0388277
0.0629564
0.0455238
0.0613951
0.0539759
0.0403727
0.0481224
0.0455283
0.0352928
0.0376279
0.0350228
0.0408547
0.0595646
0.0615001
0.0459595
0.0516071
0.0607069
0.0641054
0.040823
0.0352483
0.055572
0.04782
0.0528538
0.0441964
0.0569026
0.0406146
0.0370456
0.0483382
0.0496969
0.0585762
0.0360437
0.064158
0.0424336
0.0432817
0.0588067
0.0382227
0.0355701
0.0553365
0.0397248
0.0648137
0.0423194
0.042785
0.0576911
0.0504587
0.0424604
0.0497472
0.0398095
0.0546319
0.0381556
0.0484515
0.0628842
0.0474624
0.041649
0.0408358
0.0399472
0.0593104
0.0555806
0.0395741
0.0521297
0.0517937
0.0498134
0.0478113
0.0549178
0.0480915
0.062585
0.0527997
0.0550422
0.0384655
0.0478564
0.04376
0.0540152
0.0567635
0.0466793
0.0536664
0.0499272
0.0456782
0.0425986
0.043683
0.0399133
0.0533966
0.0496121
0.0380788
0.0359002
0.0519399
0.0398278
0.0534941
0.0561195
0.0645824
0.0486714
0.0414162
0.0428849
0.0533841
0.0631613
0.0542723
0.0406468
0.0588526
0.0409459
0.043965
0.0637235
0.0508388
0.0385475
0.0605881
0.0584988
0.0412849
0.0418258
0.0646604
0.0383459
0.0398469
0.0461977
0.0638865
0.0409317
0.0618188
0.0445655
0.0457991
0.0565267
0.0621173
0.0380008
0.0506675
0.0489966
0.0455588
0.0447832
0.0520491
0.0457564
0.0455726
0.051421
0.0533927
0.0593908
0.0436542
0.0479281
0.0372075
0.0512951
0.0416943
0.0496062
0.050622
0.0637061
0.0360024
0.0612812
0.0428734
0.0552198
0.0575115
0.0377858
0.0503871
0.0526251
0.0407556
0.0367723
0.057706
0.0579025
0.0519571
0.0481598
0.0445411
0.0394063
0.050946
0.0604493
0.04876
0.0600864
0.0613738
0.0410855
0.0585573
0.0648882
0.0405109
0.0624625
0.0460597
0.0464504
0.0545224
0.0597931
0.0363104
0.0451638
0.0568436
0.0526859
0.0366284
0.0376885
0.0411395
0.0359974
0.0604665
0.0442169
0.0498438
0.0522695
0.0557777
0.036638
0.0627063
0.0421807
0.0561899
0.0492397
0.0394193
0.0398237
0.0447354
0.0418502
0.0404493
0.0439523
0.0511547
0.0625264
0.0357901
0.0437627
0.0386842
0.0553726
0.0608398
0.057931
0.0374538
0.0617235
0.0399277
0.0436453
0.0500149
0.0549321
0.053557
0.0351756
0.035529
0.0510369
0.0537602
0.0430442
0.0605633
0.0609628
0.0456767
0.063024
0.0579748
0.0360602
0.0500247
0.0570561
0.046746
0.0414706
0.0624367
0.0421133
0.0368578
0.0564782
0.041658
0.0393079
0.0591314
0.0478604
0.0509077
0.0400467
0.0480069
0.044642
0.0560034
0.063791
0.0530688
0.0636513
0.057759
0.0548684
0.0522373
0.0467003
0.0397045
0.0569926
0.0410581
0.0368422
0.0437751
0.0415604
0.0633594
0.0642906
0.0646604
0.0358215
0.0373816
0.048014
0.0596522
0.0522687
0.0574217
0.041296
0.0609031
0.0483788
0.0605938
0.0378824
0.0603211
0.0361392
0.0502254
0.0385508
0.0543565
0.0452746
0.0362439
0.0398428
0.0647592
0.0381628
0.0436195
0.0462673
0.0500514
0.0464758
0.0576348
0.0640658
0.0526674
0.036541
0.0372548
0.0486743
0.0423171
0.0366881
0.0546926
0.0546772
0.0611134
0.0570189
0.0444674
0.059091
0.0621729
0.0452694
0.0585603
0.0485038
0.0390959
0.0516853
0.0492155
0.0630235
0.0443401
0.061785
0.0635251
0.0541022
0.0363839
0.0368951
0.0512065
0.0428776
0.0608353
0.0380329
0.0523922
0.0363884
0.0596469
0.062475
0.0457501
0.0613594
0.0455544
0.0445223
0.0642949
0.0493539
0.0363349
0.0350259
0.0619426
0.0629773
0.0562018
0.0350562
0.0562391
0.0409318
0.0583407
0.0401976
0.0365819
0.0599691
0.0597304
0.0444782
0.0392679
0.0510176
0.0628
0.0597022
0.0595621
0.0646616
0.0543739
0.0604272
0.0481462
0.0480059
0.0389823
0.063349
0.0356282
0.0352651
0.0489673
0.0587578
0.0412125
0.0457952
0.0613909
0.0625387
0.062289
0.0548699
0.0633256
0.0432012
0.056841
0.0439164
0.0587721
0.0519117
0.0430811
0.0567601
0.0352035
0.0432585
0.041902
0.0365681
0.0456724
0.0412209
0.0498769
0.0481544
0.0351783
0.0563471
0.0429896
0.046632
0.038559
0.0487516
0.0373474
0.061589
0.0623217
0.0350901
0.0594956
0.0540808
0.0404486
0.0565442
0.0392179
0.0490684
0.0453723
0.039656
0.0427042
0.0637144
0.0521347
0.0413618
0.0413628
0.0536868
0.0618874
0.0646013
0.054043
0.0452292
0.0430551
0.0470501
0.0387447
0.0390024
0.0481864
0.0592478
0.0532241
0.0351345
0.05067
0.0387898
0.0549558
0.0470523
0.0441581
0.0498554
0.0381617
0.0647406
0.0414295
0.0444262
0.0514537
0.0436954
0.0482712
0.047331
0.0457065
0.0510206
0.0495778
0.0430539
0.0544136
0.042142
0.0416177
0.0454905
0.0398306
0.0414058
0.0367129
0.0514665
0.0479668
0.0353542
0.0607746
0.0456074
0.0589109
0.0638087
0.0514155
0.0643322
0.0628287
0.0458767
0.0434891
0.0361893
0.0460918
0.0371045
0.0445415
0.0587397
0.0638565
0.0631248
0.0516489
0.0465697
0.0413365
0.0367267
0.0524367
0.049897
0.0641318
0.0632548
0.0444205
0.0368087
0.0555183
0.0414366
0.0516455
0.0600448
0.0427115
0.0548724
0.044103
0.0403294
0.0423103
0.0384565
0.0494406
0.0413291
0.0486115
0.0388277
0.0629564
0.0455238
0.0613951
0.0539759
0.0403727
0.0481224
0.0455283
0.0352928
0.0376279
0.0350228
0.0408547
0.0595646
0.0615001
0.0459595
0.0516071
0.0607069
0.0641054
0.040823
0.0352483
0.055572
0.04782
0.0528538
0.0441964
0.0569026
0.0406146
0.0370456
0.0483382
0.0496969
0.0585762
0.0360437
0.064158
0.0424336
0.0432817
0.0588067
0.0382227
0.0355701
0.0553365
0.0397248
0.0648137
0.0423194
0.042785
0.0576911
0.0504587
0.0424604
0.0497472
0.0398095
0.0546319
0.0381556
0.0484515
0.0628842
0.0474624
0.041649
0.0408358
0.0399472
0.0593104
0.0555806
0.0395741
0.0521297
0.0517937
0.0498134
0.0478113
0.0549178
0.0480915
0.062585
0.0527997
0.0550422
0.0384655
0.0478564
0.04376
0.0540152
0.0567635
0.0466793
0.0536664
0.0499272
0.0456782
0.0425986
0.043683
0.0399133
0.0533966
0.0496121
0.0380788
0.0359002
0.0519399
0.0398278
0.0534941
0.0561195
0.0645824
0.0486714
0.0414162
0.0428849
0.0533841
0.0631613
0.0542723
0.0406468
0.0588526
0.0409459
0.043965
0.0637235
0.0508388
0.0385475
0.0605881
0.0584988
0.0412849
0.0418258
0.0646604
0.0383459
0.0398469
0.0461977
0.0638865
0.0409317
0.0618188
0.0445655
0.0457991
0.0565267
0.0621173
0.0380008
0.0506675
0.0489966
0.0455588
0.0447832
0.0520491
0.0457564
0.0455726
0.051421
0.0533927
0.0593908
0.0436542
0.0479281
0.0372075
0.0512951
0.0416943
0.0496062
0.050622
0.0637061
0.0360024
0.0612812
0.0428734
0.0552198
0.0575115
0.0377858
0.0503871
0.0526251
0.0407556
0.0367723
0.057706
0.0579025
0.0519571
0.0481598
0.0445411
0.0394063
0.050946
0.0604493
0.04876
0.0600864
0.0613738
0.0410855
0.0585573
0.0648882
0.0405109
0.0624625
0.0460597
0.0464504
0.0545224
0.0597931
0.0363104
0.0451638
0.0568436
0.0526859
0.0366284
0.0376885
0.0411395
0.0359974
0.0604665
0.0442169
0.0498438
0.0522695
0.0557777
0.036638
0.0627063
0.0421807
0.0561899
0.0492397
0.0394193
0.0398237
0.0447354
0.0418502
0.0404493
0.0439523
0.0511547
0.0625264
0.0357901
0.0437627
0.0386842
0.0553726
0.0608398
0.057931
0.0374538
0.0617235
0.0399277
0.0436453
0.0500149
0.0549321
0.053557
0.0351756
0.035529
0.0510369
0.0537602
0.0430442
0.0605633
0.0609628
0.0456767
0.063024
0.0579748
0.0360602
0.0500247
0.0570561
0.046746
0.0414706
0.0624367
0.0421133
0.0368578
0.0564782
0.041658
0.0393079
0.0591314
0.0478604
0.0509077
0.0400467
0.0480069
0.044642
0.0560034
0.063791
0.0530688
0.0636513
0.057759
0.0548684
0.0522373
0.0467003
0.0397045
0.0569926
0.0410581
0.0368422
0.0437751
0.0415604
0.0633594
0.0642906
0.0646604
0.0358215
0.0373816
0.048014
0.0596522
0.0522687
0.0574217
0.041296
0.0609031
0.0483788
0.0605938
0.0378824
0.0603211
0.0361392
0.0502254
0.0385508
0.0543565
0.0452746
0.0362439
0.0398428
0.0647592
0.0381628
0.0436195
0.0462673
0.0500514
0.0464758
0.0576348
0.0640658
0.0526674
0.036541
0.0372548
0.0486743
0.0423171
0.0366881
0.0546926
0.0546772
0.0611134
0.0570189
0.0444674
0.059091
0.0621729
0.0452694
0.0585603
0.0485038
0.0390959
0.0516853
0.0492155
0.0630235
0.0443401
0.061785
0.0635251
0.0541022
0.0363839
0.0368951
0.0512065
0.0428776
0.0608353
0.0380329
0.0523922
0.0363884
0.0596469
0.062475
0.0457501
0.0613594
0.0455544
0.0445223
0.0642949
0.0493539
0.0363349
0.0350259
0.0619426
0.0629773
0.0562018
0.0350562
0.0562391
0.0409318
0.0583407
0.0401976
0.0365819
0.0599691
0.0597304
0.0444782
0.0392679
0.0510176
0.0628
0.0597022
0.0595621
0.0646616
0.0543739
0.0604272
0.0481462
0.0480059
0.0389823
0.063349
0.0356282
0.0352651
0.0489673
0.0587578
0.0412125
0.0457952
0.0613909
0.0625387
0.062289
0.0548699
0.0633256
0.0432012
0.056841
0.0439164
0.0587721
0.0519117
0.0430811
0.0567601
0.0352035
0.0432585
0.041902
0.0365681
0.0456724
0.0412209
0.0498769
0.0481544
0.0351783
0.0563471
0.0429896
0.046632
0.038559
0.0487516
0.0373474
0.061589
0.0623217
0.0350901
0.0594956
0.0540808
0.0404486
0.0565442
0.0392179
0.0490684
0.0453723
0.039656
0.0427042
0.0637144
0.0521347
0.0413618
0.0413628
0.0536868
0.0618874
0.0646013
0.054043
0.0452292
0.0430551
0.0470501
0.0387447
0.0390024
0.0481864
0.0592478
0.0532241
0.0351345
0.05067
0.0387898
0.0549558
0.0470523
0.0441581
0.0498554
0.0381617
0.0647406
0.0414295
0.0444262
0.0514537
0.0436954
0.0482712
0.047331
0.0457065
0.0510206
0.0495778
0.0430539
0.0544136
0.042142
0.0416177
0.0454905
0.0398306
0.0414058
0.0367129
0.0514665
0.0479668
0.0353542
0.0607746
0.0456074
0.0589109
0.0638087
0.0514155
0.0643322
0.0628287
0.0458767
0.0434891
0.0361893
0.0460918
0.0371045
0.0445415
0.0587397
0.0638565
0.0631248
0.0516489
0.0465697
0.0413365
0.0367267
0.0524367
0.049897
0.0641318
0.0632548
0.0444205
0.0368087
0.0555183
0.0414366
0.0516455
0.0600448
0.0427115
0.0548724
0.044103
0.0403294
0.0423103
0.0384565
0.0494406
0.0413291
0.0486115
0.0388277
0.0629564
0.0455238
0.0613951
0.0539759
0.0403727
0.0481224
0.0455283
0.0352928
0.0376279
0.0350228
0.0408547
0.0595646
0.0615001
0.0459595
0.0516071
0.0607069
0.0641054
0.040823
0.0352483
0.055572
0.04782
0.0528538
0.0441964
0.0569026
0.0406146
0.0370456
0.0483382
0.0496969
0.0585762
0.0360437
0.064158
0.0424336
0.0432817
0.0588067
0.0382227
0.0355701
0.0553365
0.0397248
0.0648137
0.0423194
0.042785
0.0576911
0.0504587
0.0424604
0.0497472
0.0398095
0.0546319
0.0381556
0.0484515
0.0628842
0.0474624
0.041649
0.0408358
0.0399472
0.0593104
0.0555806
0.0395741
0.0521297
0.0517937
0.0498134
0.0478113
0.0549178
0.0480915
0.062585
0.0527997
0.0550422
0.0384655
0.0478564
0.04376
0.0540152
0.0567635
0.0466793
0.0536664
0.0499272
0.0456782
0.0425986
0.043683
0.0399133
0.0533966
0.0496121
0.0380788
0.0359002
0.0519399
0.0398278
0.0534941
0.0561195
0.0645824
0.0486714
0.0414162
0.0428849
0.0533841
0.0631613
0.0542723
0.0406468
0.0588526
0.0409459
0.043965
0.0637235
0.0508388
0.0385475
0.0605881
0.0584988
0.0412849
0.0418258
0.0646604
0.0383459
0.0398469
0.0461977
0.0638865
0.0409317
0.0618188
0.0445655
0.0457991
0.0565267
0.0621173
0.0380008
0.0506675
0.0489966
0.0455588
0.0447832
0.0520491
0.0457564
0.0455726
0.051421
0.0533927
0.0593908
0.0436542
0.0479281
0.0372075
0.0512951
0.0416943
0.0496062
0.050622
0.0637061
0.0360024
0.0612812
0.0428734
0.0552198
0.0575115
0.0377858
0.0503871
0.0526251
0.0407556
0.0367723
0.057706
0.0579025
0.0519571
0.0481598
0.0445411
0.0394063
0.050946
0.0604493
0.04876
0.0600864
0.0613738
0.0410855
0.0585573
0.0648882
0.0405109
0.0624625
0.0460597
0.0464504
0.0545224
0.0597931
0.0363104
0.0451638
0.0568436
0.0526859
0.0366284
0.0376885
0.0411395
0.0359974
0.0604665
0.0442169
0.0498438
0.0522695
0.0557777
0.036638
0.0627063
0.0421807
0.0561899
0.0492397
0.0394193
0.0398237
0.0447354
0.0418502
0.0404493
0.0439523
0.0511547
0.0625264
0.0357901
0.0437627
0.0386842
0.0553726
0.0608398
0.057931
0.0374538
0.0617235
0.0399277
0.0436453
0.0500149
0.0549321
0.053557
0.0351756
0.035529
0.0510369
0.0537602
0.0430442
0.0605633
0.0609628
0.0456767
0.063024
0.0579748
0.0360602
0.0500247
0.0570561
0.046746
0.0414706
0.0624367
0.0421133
0.0368578
0.0564782
0.041658
0.0393079
0.0591314
0.0478604
0.0509077
0.0400467
0.0480069
0.044642
0.0560034
0.063791
0.0530688
0.0636513
0.057759
0.0548684
0.0522373
0.0467003
0.0397045
0.0569926
0.0410581
0.0368422
0.0437751
0.0415604
0.0633594
0.0642906
0.0646604
0.0358215
0.0373816
0.048014
0.0596522
0.0522687
0.0574217
0.041296
0.0609031
0.0483788
0.0605938
0.0378824
0.0603211
0.0361392
0.0502254
0.0385508
0.0543565
0.0452746
0.0362439
0.0398428
0.0647592
0.0381628
0.0436195
0.0462673
0.0500514
0.0464758
0.0576348
0.0640658
0.0526674
0.036541
0.0372548
0.0486743
0.0423171
0.0366881
0.0546926
0.0546772
0.0611134
0.0570189
0.0444674
0.059091
0.0621729
0.0452694
0.0585603
0.0485038
0.0390959
0.0516853
0.0492155
0.0630235
0.0443401
0.061785
0.0635251
0.0541022
0.0363839
0.0368951
0.0512065
0.0428776
0.0608353
0.0380329
0.0523922
0.0363884
0.0596469
0.062475
0.0457501
0.0613594
0.0455544
0.0445223
0.0642949
0.0493539
0.0363349
0.0350259
0.0619426
0.0629773
0.0562018
0.0350562
0.0562391
0.0409318
0.0583407
0.0401976
0.0365819
0.0599691
0.0597304
0.0444782
0.0392679
0.0510176
0.0628
0.0597022
0.0595621
0.0646616
0.0543739
0.0604272
0.0481462
0.0480059
0.0389823
0.063349
0.0356282
0.0352651
0.0489673
0.0587578
0.0412125
0.0457952
0.0613909
0.0625387
0.062289
0.0548699
0.0633256
0.0432012
0.056841
0.0439164
0.0587721
0.0519117
0.0430811
0.0567601
0.0352035
0.0432585
0.041902
0.0365681
0.0456724
0.0412209
0.0498769
0.0481544
0.0351783
0.0563471
0.0429896
0.046632
0.038559
0.0487516
0.0373474
0.061589
0.0623217
0.0350901
0.0594956
0.0540808
0.0404486
0.0565442
0.0392179
0.0490684
0.0453723
0.039656
0.0427042
0.0637144
0.0521347
0.0413618
0.0413628
0.0536868
0.0618874
0.0646013
0.054043
0.0452292
0.0430551
0.0470501
0.0387447
0.0390024
0.0481864
0.0592478
0.0532241
0.0351345
0.05067
0.0387898
0.0549558
0.0470523
0.0441581
0.0498554
0.0381617
0.0647406
0.0414295
0.0444262
0.0514537
0.0436954
0.0482712
0.047331
0.0457065
0.0510206
0.0495778
0.0430539
0.0544136
0.042142
0.0416177
0.0454905
0.0398306
0.0414058
0.0367129
0.0514665
0.0479668
0.0353542
0.0607746
0.0456074
0.0589109
0.0638087
0.0514155
0.0643322
0.0628287
0.0458767
0.0434891
0.0361893
0.0460918
0.0371045
0.0445415
0.0587397
0.0638565
0.0631248
0.0516489
0.0465697
0.0413365
0.0367267
0.0524367
0.049897
0.0641318
0.0632548
0.0444205
0.0368087
0.0555183
0.0414366
0.0516455
0.0600448
0.0427115
0.0548724
0.044103
0.0403294
0.0423103
0.0384565
0.0494406
0.0413291
0.0486115
0.0388277
0.0629564
0.0455238
0.0613951
0.0539759
0.0403727
0.0481224
0.0455283
0.0352928
0.0376279
0.0350228
0.0408547
0.0595646
0.0615001
0.0459595
0.0516071
0.0607069
0.0641054
0.040823
0.0352483
0.055572
0.04782
0.0528538
0.0441964
0.0569026
0.0406146
0.0370456
0.0483382
0.0496969
0.0585762
0.0360437
0.064158
0.0424336
0.0432817
0.0588067
0.0382227
0.0355701
0.0553365
0.0397248
0.0648137
0.0423194
0.042785
0.0576911
0.0504587
0.0424604
0.0497472
0.0398095
0.0546319
0.0381556
0.0484515
0.0628842
0.0474624
0.041649
0.0408358
0.0399472
0.0593104
0.0555806
0.0395741
0.0521297
0.0517937
0.0498134
0.0478113
0.0549178
0.0480915
0.062585
0.0527997
0.0550422
0.0384655
0.0478564
0.04376
0.0540152
0.0567635
0.0466793
0.0536664
0.0499272
0.0456782
0.0425986
0.043683
0.0399133
0.0533966
0.0496121
0.0380788
0.0359002
0.0519399
0.0398278
0.0534941
0.0561195
0.0645824
0.0486714
0.0414162
0.0428849
0.0533841
0.0631613
0.0542723
0.0406468
0.0588526
0.0409459
0.043965
0.0637235
0.0508388
0.0385475
0.0605881
0.0584988
0.0412849
0.0418258
0.0646604
0.0383459
0.0398469
0.0461977
0.0638865
0.0409317
0.0618188
0.0445655
0.0457991
0.0565267
0.0621173
0.0380008
0.0506675
0.0489966
0.0455588
0.0447832
0.0520491
0.0457564
0.0455726
0.051421
0.0533927
0.0593908
0.0436542
0.0479281
0.0372075
0.0512951
0.0416943
0.0496062
0.050622
0.0637061
0.0360024
0.0612812
0.0428734
0.0552198
0.0575115
0.0377858
0.0503871
0.0526251
0.0407556
0.0367723
0.057706
0.0579025
0.0519571
0.0481598
0.0445411
0.0394063
0.050946
0.0604493
0.04876
0.0600864
0.0613738
0.0410855
0.0585573
0.0648882
0.0405109
0.0624625
0.0460597
0.0464504
0.0545224
0.0597931
0.0363104
0.0451638
0.0568436
0.0526859
0.0366284
0.0376885
0.0411395
0.0359974
0.0604665
0.0442169
0.0498438
0.0522695
0.0557777
0.036638
0.0627063
0.0421807
0.0561899
0.0492397
0.0394193
0.0398237
0.0447354
0.0418502
0.0404493
0.0439523
0.0511547
0.0625264
0.0357901
0.0437627
0.0386842
0.0553726
0.0608398
0.057931
0.0374538
0.0617235
0.0399277
0.0436453
0.0500149
0.0549321
0.053557
0.0351756
0.035529
0.0510369
0.0537602
0.0430442
0.0605633
0.0609628
0.0456767
0.063024
0.0579748
0.0360602
0.0500247
0.0570561
0.046746
0.0414706
0.0624367
0.0421133
0.0368578
0.0564782
0.041658
0.0393079
0.0591314
0.0478604
0.0509077
0.0400467
0.0480069
0.044642
0.0560034
0.063791
0.0530688
0.0636513
0.057759
0.0548684
0.0522373
0.0467003
0.0397045
0.0569926
0.0410581
0.0368422
0.0437751
0.0415604
0.0633594
0.0642906
0.0646604
0.0358215
0.0373816
0.048014
0.0596522
0.0522687
0.0574217
0.041296
0.0609031
0.0483788
0.0605938
0.0378824
0.0603211
0.0361392
0.0502254
0.0385508
0.0543565
0.0452746
0.0362439
0.0398428
0.0647592
0.0381628
0.0436195
0.0462673
0.0500514
0.0464758
0.0576348
0.0640658
0.0526674
0.036541
0.0372548
0.0486743
0.0423171
0.0366881
0.0546926
0.0546772
0.0611134
0.0570189
0.0444674
0.059091
0.0621729
0.0452694
0.0585603
0.0485038
0.0390959
0.0516853
0.0492155