# vtk DataFile Version 3.0.
comment
ASCII

DATASET POLYDATA
POINTS 28896 double
1.22721 0.248601 0.258831
2.03762 1.77029 1.23624
2.53768 3.10957 0.655496
2.02632 2.60445 1.1121
2.95599 1.47511 2.02827
0.896109 3.30827 0.0599453
0.712185 1.18782 1.95639
0.0829831 1.75602 0.400119
2.4589 3.43591 0.218379
0.438914 0.130572 0.448932
1.92794 1.22645 0.0637752
3.22803 0.0206889 1.03956
0.625717 2.13863 1.75523
1.78183 2.3362 0.532143
1.49705 1.80666 0.476336
2.16393 2.5136 1.11697
1.66671 0.817865 0.965694
0.0304246 0.703716 0.666054
0.558469 2.07949 1.12708
0.0583369 1.13157 1.65763
0.427647 0.46853 0.568954
1.18451 1.565 1.82415
1.364 2.02337 1.22008
0.427327 2.36587 1.52108
0.862757 0.0732481 0.146319
2.03059 1.39149 0.650334
2.27739 2.5892 0.765057
0.872094 0.857908 1.01739
2.1185 2.77383 0.519661
2.504 2.66398 0.494585
2.08086 3.41954 1.32413
2.2976 0.95936 1.444
2.42182 2.99636 0.40862
1.05615 1.54302 2.02327
2.84805 2.13047 0.017526
2.69755 0.621459 0.939183
2.14736 2.35581 1.62085
3.4286 2.56433 0.758621
0.623011 2.83907 1.79807
3.19526 0.584972 1.02929
0.10512 2.17437 1.17176
2.17695 0.822172 0.993884
2.98646 3.25836 1.38147
3.13799 3.0739 0.935242
0.742705 3.33569 2.03325
0.287809 1.87985 2.00755
1.02726 3.22188 1.26886
1.78767 2.56239 0.543446
0.686082 2.08816 0.191549
1.92763 0.597448 0.0793502
0.846568 2.78143 0.498949
0.0278563 0.759107 0.195316
0.724704 2.37515 0.790235
2.02226 2.18784 1.69194
0.182965 0.408938 0.914364
0.530264 0.643272 1.14087
2.72568 0.800527 1.29905
0.0209843 2.51931 0.289225
3.133 1.11128 0.471501
2.87306 2.57065 0.34281
1.95462 0.135933 1.13436
1.88738 1.18652 0.692291
2.63528 0.963948 2.07238
0.483513 0.149136 0.0307782
0.466131 0.993736 1.93948
3.08014 2.64494 1.15716
2.99943 1.5472 0.644801
0.866859 3.4382 0.935864
1.58775 1.66328 0.345055
0.898884 3.32256 0.285613
0.157526 1.29366 1.50884
3.26787 2.49727 1.23644
1.1655 2.84356 1.8517
2.06307 1.04339 1.48141
1.55017 3.44071 1.11235
2.60929 1.18102 1.21307
1.64092 3.10775 0.40477
1.8496 0.649 1.05206
0.0211722 1.51736 0.387105
2.87578 2.22736 0.174185
1.8995 0.151708 0.745779
2.28079 1.027 0.73473
3.31011 2.13774 0.243314
1.05713 2.59899 1.83146
0.131276 2.25702 0.926239
3.27406 3.08905 1.55409
3.23052 2.59065 1.22372
2.6128 1.1711 1.34655
0.0973626 1.93891 2.02917
2.92608 0.327692 0.624924
1.30353 2.70026 1.69718
1.88029 0.0405165 0.739718
3.18633 0.760489 1.1072
1.54559 1.96722 0.0573281
2.75099 3.28883 1.18296
0.557925 0.613427 0.0493245
3.21701 1.59768 0.0727184
0.240018 1.80406 0.80173
3.15626 1.28205 1.42678
1.27691 0.295198 2.07714
1.27854 3.3951 0.326674
1.90767 1.57771 1.34621
2.98355 0.560233 0.413218
2.33431 2.84894 1.98379
1.25794 1.9887 1.40884
1.09616 0.699882 1.48941
2.01208 1.9279 1.39359
1.59238 2.79975 1.94194
0.683252 2.25442 1.85125
1.98606 0.17851 0.715294
3.24235 1.29953 2.00556
0.757324 0.546321 0.816563
2.3834 2.07064 1.42864
2.66634 3.33976 0.9604
3.16148 2.11105 1.59789
1.41145 1.75452 0.841868
0.237597 2.21467 1.70457
1.13485 3.33489 2.10376
2.12594 2.69917 1.28996
0.899379 1.67146 1.66372
0.0295186 0.380537 1.9159
1.93712 1.29032 0.37864
3.13607 1.47884 1.3803
1.44975 2.98063 0.827683
2.95037 3.10308 0.472172
0.476669 1.75585 1.8358
2.97967 0.28257 1.48075
0.532842 0.198781 1.22433
2.82429 0.799406 1.48968
0.0262686 1.65554 0.284374
2.42053 1.39603 0.094229
1.78085 2.10324 2.01677
2.05763 2.95742 0.246124
2.03011 1.73688 0.605029
0.171096 2.50699 1.95847
2.77436 2.00747 0.58869
1.37564 1.8412 1.12559
1.2398 0.104482 0.798822
3.39733 0.795702 2.02796
1.05045 2.47498 1.9733
2.74519 1.94996 0.0927168
3.13014 0.895952 0.257468
0.306943 0.39607 0.0447742
3.08979 2.88997 1.01822
0.340846 2.76054 0.026192
2.09461 1.44118 0.937475
0.177109 2.4926 1.74028
1.62168 2.19924 0.894864
0.148757 0.42322 2.00653
0.58765 0.397924 0.00540916
0.906589 2.30828 0.428665
2.80905 1.55453 0.679677
0.0144508 3.33013 0.58472
0.89051 1.30408 0.999177
2.51623 0.694608 1.45835
0.547366 0.341161 1.00078
1.77945 3.03428 1.81845
0.134832 3.18015 1.87483
1.69395 2.12936 0.139959
2.75133 0.0629614 1.47351
2.6925 1.19425 2.09733
2.00592 1.43201 1.60022
1.76338 2.64853 0.802463
3.30221 2.40214 1.21253
0.366969 3.37041 0.782564
1.266 0.594094 1.92639
0.299478 3.24168 1.27971
0.572911 1.89995 0.135219
1.00388 2.68785 0.227279
1.17808 1.8799 1.62361
3.03086 3.04925 0.799803
1.09024 2.89361 0.490201
2.99981 0.682203 0.916123
1.11069 2.2893 1.25116
3.19103 2.53492 1.16303
0.395332 2.65558 0.780713
2.90762 2.83004 0.352834
1.71197 0.911374 1.71487
2.70446 3.23767 0.45538
1.24194 2.95478 1.45285
3.46052 0.360411 1.57582
1.89498 3.06807 1.67369
3.43235 1.18381 1.7693
1.68141 2.06084 0.627865
1.41561 2.98287 1.47632
0.909332 3.3771 0.560098
2.6526 1.81746 0.730375
3.34871 3.10658 1.06584
0.901157 2.03421 1.95932
1.33053 1.14007 1.74332
2.19836 0.952308 1.08654
2.57415 0.342594 1.20896
2.47199 2.35282 0.810681
0.369783 1.76765 1.57281
1.98326 1.59444 1.94475
2.89714 3.14165 0.623802
2.3981 2.55405 1.50931
0.516779 0.0806856 1.71398
1.21347 0.398022 0.0194772
0.737735 2.13906 2.05234
2.16211 1.92205 1.02305
0.24158 1.84965 2.09705
0.292121 3.31202 0.431827
2.934 0.172445 0.276343
0.657158 1.43062 2.02372
3.14983 1.29874 1.77578
3.08337 0.995081 1.22743
1.12501 0.374801 0.966463
1.51789 2.52933 1.4149
2.1382 2.58489 0.0803098
1.70484 2.21103 0.652815
1.03854 2.70704 1.4847
2.89367 1.86462 1.27791
1.657 0.788651 0.538002
1.2131 1.5708 1.07119
0.727377 2.61095 0.353984
2.06507 2.36331 0.66685
1.70163 0.0865865 1.86723
0.778849 0.93088 0.162283
2.19751 2.01693 0.026994
3.07441 2.03581 2.07299
0.988295 3.09342 1.25684
0.981557 0.824276 1.96265
1.5576 2.2092 1.38217
2.32718 2.57475 0.155927
1.52908 2.21524 0.0738804
2.06465 1.81269 0.828643
1.26608 2.59937 1.9333
1.97976 0.637989 0.632155
1.31466 2.92822 0.700133
2.51153 1.97108 0.803056
0.647533 3.38649 0.142301
2.75732 2.9962 1.19323
1.4326 2.66544 1.22157
2.05847 1.15335 0.324845
3.11639 0.104079 1.03793
0.714584 2.13335 1.09114
1.12487 2.25482 1.16821
2.92727 3.32549 1.74555
2.30839 3.07161 1.70899
2.45818 2.3851 2.08624
3.10761 1.85061 0.45634
2.76287 3.12176 0.756459
3.4002 2.1017 1.84603
0.756687 2.12664 1.24648
3.08805 0.574865 0.46889
2.96997 2.16713 1.3652
3.02885 0.700291 1.86208
2.44532 0.556978 1.33167
2.62649 2.8272 1.02292
1.49722 2.1887 1.72058
1.64477 2.33779 1.5067
3.36459 0.766894 1.2683
3.27076 1.12873 0.499108
1.3241 1.95342 1.63621
2.8152 1.34176 0.253361
0.415043 1.02171 0.255641
2.66768 1.83335 1.83392
2.12255 3.23901 1.48965
2.52222 0.110074 0.152665
2.62886 2.83683 1.61779
0.394203 0.925406 1.97432
1.50019 1.65347 1.8782
0.439555 0.475656 0.202915
1.90103 1.81855 0.174173
0.363047 3.17373 1.45232
0.383019 1.26472 0.969562
1.37927 1.60539 0.587861
1.80828 3.37654 0.671041
1.1986 0.551297 1.87152
1.14608 0.553229 1.17224
2.67076 3.40288 1.53847
1.59192 1.97435 0.459071
2.35321 0.883056 1.94412
1.45471 0.971488 1.4264
2.72816 1.12822 1.50031
2.12488 1.11072 1.09689
2.82658 1.12749 1.70321
2.35945 3.34163 2.07144
0.449953 3.46153 1.26157
1.43133 0.897457 1.88942
1.10051 2.71867 1.14097
0.283972 0.945995 0.553435
0.53915 2.03235 1.04874
0.758194 0.659621 0.632398
1.10671 1.63101 1.01156
1.06723 0.235831 1.59538
1.42984 2.29595 0.983803
2.60841 1.18164 0.551321
0.111217 1.32206 1.80188
2.80389 0.534121 1.04651
2.08447 2.06551 0.987642
1.64861 3.18805 1.9493
0.0234861 1.94619 0.128747
0.224246 2.95104 1.17855
0.145191 2.02518 0.963324
0.64562 2.50394 1.3543
1.69347 2.50139 0.212707
3.04329 2.99882 1.13793
1.56889 3.15619 1.60248
0.523439 1.99169 1.73074
0.299679 1.14554 1.86184
3.25538 1.10697 1.13357
0.804374 2.25326 1.98617
2.39751 0.616369 1.3489
1.53353 3.45122 0.363754
1.02013 3.43465 0.930311
0.441394 0.833206 0.327552
1.31162 1.88797 0.463458
1.99794 0.0598611 1.8732
0.0337452 0.33513 0.762438
2.17431 2.89472 0.801961
0.296778 2.77152 1.56399
2.36247 2.06326 0.93587
1.89318 1.9526 1.88728
3.24728 0.749462 1.76468
0.451086 3.10558 0.148209
1.96372 2.05442 0.99568
1.48274 0.938108 0.987834
0.598287 2.36247 1.77964
0.257897 2.55362 1.22065
2.74482 3.18671 0.126591
1.19057 1.28337 1.77918
1.17137 3.2207 0.880665
3.02104 2.918 1.17903
0.13036 3.23399 0.369337
0.492726 2.68506 1.62119
0.514786 3.27078 1.94459
0.947922 2.49562 1.80729
0.225968 2.56991 1.00568
1.13382 2.15823 1.54561
3.36445 1.58236 1.64413
2.16108 2.93165 0.608903
1.05822 0.791969 1.43566
1.42147 0.0619883 0.530219
1.89471 1.0914 1.87431
2.16585 2.20917 1.56644
0.359875 2.53436 0.458423
0.0735395 2.74036 0.823068
2.63767 3.2119 1.83702
0.636029 2.76463 0.298124
2.56652 0.479291 0.644027
1.68929 2.01751 0.421001
1.61338 1.60004 1.31922
1.60819 3.07265 0.34736
1.68252 2.59514 1.38214
3.32243 2.86324 1.09958
3.05115 2.49005 1.83645
1.81584 0.141455 0.68709
2.71375 3.19229 1.62875
2.9712 3.10525 0.732755
0.351972 1.20603 1.68914
2.55174 2.8035 0.339256
2.84646 0.374236 1.69947
1.54692 3.30558 0.223765
3.25438 1.46841 0.340889
3.02973 0.739225 0.788645
1.41623 2.91036 1.02952
0.973135 0.761664 1.39677
1.18735 2.86603 1.57849
2.93351 1.52524 0.871084
2.22638 3.4328 0.258747
1.39662 3.47914 1.15596
0.537104 1.71046 1.86514
0.365514 0.847647 0.813738
2.29085 2.32636 2.08337
2.29107 3.41892 1.00341
0.222072 1.30572 0.883768
0.680591 0.103188 1.04334
2.63607 0.47862 1.86451
1.1972 1.56639 1.16676
2.8123 0.905739 1.88148
2.72927 3.37632 1.81512
2.48877 0.0406894 0.419409
2.90116 1.95226 1.2943
2.83357 0.956566 0.496713
2.05897 0.225438 1.12184
3.40343 2.72759 1.54714
3.02377 2.31932 0.869264
0.220097 1.13903 1.75564
3.15357 2.29174 1.82898
0.512398 1.80056 0.663243
2.88923 2.9917 1.51042
1.89303 2.79189 1.75438
0.0438874 3.45108 1.98766
1.51661 1.15028 2.09874
2.29624 0.322714 0.868917
2.88646 3.18464 0.177992
2.41847 2.64666 2.10581
1.09339 0.215282 1.30192
2.16688 2.24504 0.429348
1.008 0.400814 1.18853
2.44205 1.4198 1.91283
0.632004 0.169742 1.12601
0.42008 1.36903 2.0819
2.64644 0.414756 0.808717
1.28963 2.22523 0.902524
2.06016 1.74584 2.02904
1.7338 2.24026 0.866598
1.59251 1.14852 0.79958
0.478454 2.30909 1.16192
[...]
POINT_DATA 28896
SCALARS radius double 1
LOOKUP_TABLE default
0.0365121
0.0508315
0.0449216
0.0503275
0.0379623
0.0377777
0.0402999
0.0515065
0.0555523
0.0364416
0.0466321
0.046454
0.0531748
0.0548791
0.0605918
0.0550723
0.0486904
0.0517433
0.0438502
0.051625
0.0370092
0.041353
0.0394469
0.0604906
0.0553692
0.0648842
0.0399119
0.0430206
0.0478191
0.0456017
0.0618378
0.0390482
0.0521158
0.0429829
0.0517373
0.0517866
0.0355888
0.0514416
0.0441532
0.0508742
0.0518376
0.0500606
0.0457091
0.0586671
0.0494221
0.0428432
0.0368742
0.0565438
0.0565696
0.047776
0.0445727
0.0580508
0.0358078
0.0550399
0.0556203
0.0365082
0.052592
0.0531918
0.0531631
0.0378895
0.0467749
0.0399594
0.0470178
0.0424258
0.0551523
0.0427997
0.0494608
0.0482435
0.048478
0.0372397
0.0403179
0.0612147
0.0366902
0.045316
0.0547544
0.043111
0.0373067
0.0458329
0.0421867
0.0372221
0.0566605
0.0580829
0.0364845
0.0645099
0.048687
0.0552677
0.0356848
0.0407421
0.0467603
0.0421146
0.0393855
0.0474463
0.057408
0.0524726
0.056477
0.0375351
0.0483157
0.0510856
0.046517
0.0350321
0.064076
0.0432148
0.0550726
0.0558143
0.051376
0.0573979
0.0430495
0.0489801
0.0469391
0.0387195
0.0575737
0.0521739
0.0410391
0.0392034
0.047074
0.0463318
0.045632
0.0378674
0.0401636
0.040383
0.0407137
0.0506636
0.0425499
0.0648115
0.0557955
0.0459132
0.0444944
0.0404402
0.0490459
0.0454179
0.0646854
0.0633329
0.0471079
0.0595853
0.0585179
0.0476629
0.0574107
0.0374936
0.0514442
0.0637111
0.0387847
0.0394834
0.0354933
0.0386344
0.0558519
0.0532767
0.0482046
0.0381316
0.0574532
0.0385061
0.0366372
0.0366975
0.0583833
0.0368914
0.0522357
0.0363149
0.0491681
0.0480151
0.0439663
0.0435477
0.0434843
0.052308
0.0641075
0.0419051
0.054242
0.0371809
0.0473346
0.0604098
0.0431501
0.0613009
0.0446758
0.0377831
0.0459495
0.0555168
0.0516936
0.0615747
0.0460038
0.0643956
0.0446601
0.0396125
0.0493192
0.0500646
0.0435611
0.0638672
0.0467578
0.0543035
0.0415447
0.0552821
0.047043
0.0631792
0.0412827
0.0413712
0.0352598
0.0379765
0.0454309
0.0355474
0.0515322
0.0386951
0.0523314
0.0356454
0.0456625
0.062863
0.0646221
0.0458697
0.0607265
0.0370243
0.0590026
0.0513672
0.0535217
0.0382853
0.058143
0.0627336
0.0419139
0.039751
0.0495085
0.0404297
0.0445574
0.0384625
0.0409123
0.0465572
0.0373993
0.0531956
0.0415537
0.0381774
0.0450892
0.0542529
0.0614605
0.0639785
0.0370499
0.0455958
0.0421731
0.0515129
0.0582652
0.0626444
0.0401066
0.0599752
0.037195
0.0357436
0.0444882
0.0640073
0.0411849
0.0517699
0.0563759
0.0449906
0.0350215
0.0547034
0.0387969
0.0620452
0.0380706
0.0380861
0.0423412
0.0407949
0.0597599
0.0521746
0.0614154
0.0541633
0.0597064
0.0503131
0.0358983
0.0505577
0.0511112
0.04428
0.0388247
0.0584264
0.0506075
0.0633136
0.0552007
0.0637354
0.0546921
0.0588205
0.0519614
0.042751
0.0544245
0.0547926
0.0586636
0.0591279
0.0621259
0.0638125
0.055262
0.0371617
0.0372707
0.0511915
0.048741
0.0501528
0.0632993
0.0586196
0.0558897
0.0522067
0.0579956
0.0484101
0.0468262
0.0394816
0.0644082
0.0424072
0.0425186
0.044419
0.0489822
0.0556003
0.045773
0.0449517
0.0596832
0.0570496
0.0548818
0.0423428
0.0402575
0.0356093
0.0357897
0.0361646
0.0555727
0.0585411
0.0484599
0.0483593
0.0636936
0.0371973
0.0509646
0.0478787
0.0637787
0.053295
0.0578611
0.0590169
0.0429346
0.0549098
0.0491186
0.0522947
0.0453412
0.0392699
0.0431484
0.0582746
0.0354664
0.0443487
0.0533762
0.0574896
0.0577967
0.0557796
0.0642362
0.0374072
0.0439248
0.0614376
0.0502416
0.0570596
0.0372083
0.0553112
0.0431352
0.0578387
0.0375601
0.035185
0.0622107
0.0602971
0.0462498
0.0535278
0.0378763
0.0562676
0.0453369
0.0515811
0.0451661
0.0545641
0.0391348
0.0465588
0.0414961
0.0641122
0.0572444
0.0509957
0.0368131
0.0351973
0.0618329
0.0397568
0.0500107
0.0423291
0.0553132
0.043158
0.0481224
0.051684
0.0398624
0.052101
0.047099
0.0384235
0.0490352
0.0411432
0.0361864
0.0396812
0.0454537
0.0422481
0.0350225
0.0559564
0.0476815
0.0418895
0.0447386
0.0437794
0.0520863
0.0530515
0.0499152
0.0630005
0.0535488
0.0617017
0.0605966
0.0356236
0.048158
0.0435791
0.0352581
0.0495281
0.0471568
0.0384226
0.0517879
0.0414884
0.038527
0.0620262
0.0372019
0.0417002
0.0553783
0.0601201
0.0590582
0.0403842
0.0493173
0.0554483
0.0351575
0.0625637
0.0382234
0.0459962
0.0550985
0.0519117
0.0433266
0.0608924
0.0565414
0.0401266
0.0537545
0.0386861
0.0619762
0.0440505
0.0493987
0.053854
0.0444911
0.0542915
0.0509666
0.0444887
0.0442125
0.0353414
0.0459407
0.0599975
0.0504644
0.0464713
0.0439306
0.0424295
0.0458358
0.0493818
0.0450277
0.0643247
0.0375861
0.0554782
0.0382914
0.049421
0.0365843
0.0592341
0.0352097
0.0633782
0.0461711
0.0577651
0.0389752
0.0532859
0.0588434
0.039573
0.0389604
0.0351695
0.0543824
0.0352034
0.0367607
0.0389724
0.0587209
0.0402786
0.0621279
0.0362842
0.0542618
0.0517652
0.0470707
0.0372504
0.0361704
0.0478342
0.0369632
0.053585
0.0453322
0.0507601
0.0437841
0.0361976
0.0411586
0.0596706
0.0400761
0.0375632
0.0471403
0.0386767
0.0399805
0.0545975
0.0448717
0.0377721
0.0495698
0.0394446
0.0417161
0.053222
0.0563674
0.0366805
0.0375329
0.0648303
0.0403922
0.0582163
0.0429614
0.0623995
0.0572015
0.0554515
0.0445731
0.0587051
0.0621433
0.0582145
0.0439895
0.0555227
0.0372633
0.0384414
0.0644246
0.0402019
0.0545568
0.05841
0.0370605
0.0527725
0.0417874
0.0451698
0.0607814
0.0359816
0.044271
0.0498037
0.0526622
0.0413054
0.0480225
0.0358315
0.043078
0.0361544
0.0644678
0.0353573
0.0563478
0.0368488
0.0350667
0.0425385
0.0424854
0.0614653
0.0481257
0.0466548
0.0496393
0.0356665
0.0579624
0.0514287
0.0407544
0.0379297
0.0514522
0.0381875
0.0430596
0.0464331
0.0388683
0.0579646
0.0615323
0.0630229
0.0613173
0.0613518
0.0614991
0.0527114
0.0460222
0.0602936
0.0647804
0.0467677
0.0524013
0.0402463
0.0395603
0.036451
0.0483201
0.0451369
0.0417955
0.0374896
0.0514571
0.0503861
0.04142
0.0638693
0.0364234
0.0393355
0.0470515
0.0551842
0.0444207
0.036589
0.0594095
0.0384365
0.0520624
0.0383748
0.0579245
0.0425217
0.0586277
0.043061
0.0463373
0.0516603
0.04552
0.0401056
0.0467113
0.0445078
0.0596478
0.0478876
0.057475
0.0386861
0.0576446
0.0384145
0.0637878
0.0638697
0.0476347
0.0448122
0.0597006
0.0431031
0.0482939
0.0557966
0.0356932
0.0415997
0.0494058
0.0475471
0.0477607
0.0598357
0.0592743
0.0528338
0.0383033
0.0388962
0.0611219
0.0451122
0.053803
0.0431146
0.0371545
0.0441634
0.0432225
0.0438322
0.060203
0.054215
0.0537267
0.0351273
0.0489482
0.0406923
0.0371999
0.042244
0.0375993
0.0581375
0.0486222
0.0605895
0.0445041
0.0642871
0.0488419
0.0506299
0.0376738
0.0524003
0.058822
0.0375959
0.0507976
0.04013
0.0619268
0.037363
0.0565569
0.0488146
0.0634373
0.0429216
0.0561103
0.0402601
0.038778
0.0374002
0.0625922
0.0410406
0.0532297
0.0456878
0.0355879
0.0366411
0.0458188
0.0481969
0.0356421
0.0466342
0.0649172
0.0402227
0.0538834
0.0491631
0.0486192
0.0373394
0.0534194
0.0610609
0.0508596
0.0479228
0.0643407
0.0557659
0.0407471
0.0391983
0.0587641
0.046028
0.0555757
0.0649313
0.0352049
0.0610542
0.0366884
0.0383502
0.0405795
0.0500083
0.0474961
0.0371374
0.0587682
0.0440227
0.043292
0.0631772
0.0543021
0.0481809
0.0380786
0.0477098
0.0522878
0.0512143
0.0530921
0.0602362
0.0560102
0.0586101
0.0561012
0.0500294
0.0491428
0.0398342
0.0448392
0.0473714
0.06465
0.0519734
0.0471904
0.0623421
0.0495862
0.0511707
0.0559963
0.0543857
0.0462087
0.0556857
0.0465028
0.0396461
0.0417054
0.0460495
0.0507719
0.058099
0.0638367
0.0560551
0.0626036
0.0375448
0.0402365
0.0525545
0.0631177
0.0370708
0.0601181
0.0606608
0.0425911
0.0624842
0.0531112
0.0358311
0.0366985
0.0482266
0.0485887
0.0428923
0.0630935
0.0420135
0.0457405
0.0439592
0.0556478
0.0373203
0.0361833
0.0353832
0.0460163
0.0486139
0.053754
0.0353672
0.0461969
0.0549461
0.0560001
0.0356405
0.0386618
0.0600528
0.0598464
0.0462919
0.0502323
0.0387071
0.0503684
0.0500805
0.0532994
0.0504608
0.0441585
0.0425556
0.0566014
0.0425372
0.0480262
0.0364684
0.0353977
0.0529319
0.0647501
0.0376632
0.0544635
0.0409974
0.0426517
0.0431044
0.0463824
0.0449392
0.0547461
0.0599277
0.0417104
0.0423504
0.054556
0.0619045
0.0407573
0.0351677
0.0493695
0.0570796
0.0446252
0.039647
0.0381985
0.0452014
0.0505142
0.0522567
0.0589483
0.0552857
0.0375579
0.0477309
0.0510397
0.0474885
0.0441248
0.0524691
0.0548011
0.0385726
0.0595553
0.0514217
0.0497784
0.0541301
0.0577482
0.0431183
0.0389647
0.0613965
0.0624031
0.0605816
0.0455462
0.0364421
0.0548538
0.0356505
0.043366
0.0617097
0.039107
0.0621094
0.0603946
0.0368286
0.0385366
0.040154
0.0395495
0.0541842
0.0405439
0.0622552
0.0502571
0.0386786
0.0519412
0.0570216
0.0562056
0.0445662
0.0617374
0.0352505
0.0380828
0.0426864
0.0613011
0.0520633
0.048321
0.0401667
0.0530007
0.0537868
0.0395783
0.0592767
0.0646514
0.0491146
0.0573693
0.0557823
0.0391174
0.0374052
0.0351432
0.0454262
0.0559785
0.0626741
0.0608935
0.0545342
0.0525878
0.0462193
0.0643425
0.0419728
0.0452023
0.0548954
0.0456572
0.0386912
0.0560806
0.0465681
0.0407459
0.0456976
0.050259
0.0511511
0.0483067
0.047126
0.0583397
0.0628284
0.045483
0.0350927
0.056268
0.0489067
0.0452525
0.0429131
0.040433
0.0400856
0.0616721
0.0542918
0.0559452
0.0466127
0.0381959
0.0491798
0.0390024
0.051344
0.0391295
0.0614597
0.0369897
0.0573608
0.0437189
0.0481927
0.055171
0.0519578
0.0401558
0.0525549
0.0398787
0.0369781
0.0601409
0.0399471
0.0614186
0.0647253
0.0547284
0.0395798
0.0555612
0.0421236
0.0516906
0.0496407
0.0364887
0.037083
0.0437815
0.0499839
0.0519229
0.0518015
0.0444072
0.0607915
0.0422277
0.0377915
0.0375212
0.0446303
0.0385984
0.0422999
0.0429997
0.0618438
0.0385316
0.0560446
0.0407769
0.0522934
0.0588539
0.0486499
0.0642919
0.0611126
0.0485417
0.0422698
0.0363566
0.0511636
0.0523692
0.0566048
0.0618066
0.0391705
0.0362326
0.0407023
0.0409193
0.0394745
0.0408998
0.0455924
0.0430737
0.0494132
0.0396247
0.0505628
0.045048
0.0432321
0.0522136
0.0427404
0.0360016
0.0561618
0.0484953
0.0450622
0.0372862
0.0565568
0.0407114
0.0592547
0.0503068
0.0521157
0.036466
0.0554002
0.0635809
0.048512
0.0383921
0.0411502
0.0618317
0.0400358
0.0513954
0.042585
0.0584954
0.0500688
0.0439494
0.0571993
0.0361945
0.0386538
0.0400783
0.0600355
0.0527198
0.0585854
0.0542479
0.0415785
0.0408737
0.0361502
0.0625945
0.058363
0.0490954
0.0475734
0.0514474
0.0499402
0.0512429
0.0646176
0.0627271
0.0621672
0.0381741
0.0380225
0.0606505
0.0461078
0.0359418
0.043013
0.0570265
0.039611
0.0519781
0.0564922
0.0418991
0.0616783
0.037592
0.0473953
0.0435361
0.0635734
0.0532155
0.0378009
0.0391775
0.0516805
0.0554574
0.0637528
0.0484864
0.0574758
0.042169
0.0489812
0.0631413
0.0395174
0.0411682
0.0553271
0.0374637
0.0375981
0.0398492
0.0473768
0.0397953
0.0516209
0.0402527
0.0428942
0.0551215
0.0623563
0.0549418
0.0529927
0.0499034
0.0392209
0.0355371
0.047166
0.0354486
0.0482284
0.0442028
0.0584415
0.0394762
0.0580663
0.052225
0.0444229
0.040292
0.0467457
0.0399685
0.0365065
0.0643891
0.0470385
0.0415158
0.0384701
0.0495735
0.0507079
0.0359101
0.0532529
0.0578424
0.0640264
0.0360299
0.0397246
0.0368768
0.0593835
0.0527925
0.0351325
0.0418495
0.0402503
0.0406091
0.054824
0.0357564
0.0603769
0.0372991
0.0613055
0.0381497
0.0626291
0.0397084
0.0397482
0.0549255
0.0508632
0.0569782
0.0520437
0.0419646
0.0626289
0.0435575
0.0557236
0.056451
0.0635952
0.0607741
0.0447702
0.0445226
0.0354897
0.0479793
0.0504948
0.0438148
0.045689
0.0564662
0.0624378
0.0490572
0.0546697
0.0546346
0.0421447
0.0529117
0.0574264
0.0386268
0.048543
0.0603048
0.0466072
0.0473385
0.0645827
0.0361719
0.0630168
0.0544043
0.049309
0.0533175
0.0522471
0.0497756
0.0648457
0.0439658
0.0515609
0.0414839
0.0618974
0.0524977
0.0609832
0.0418942
0.0375435
0.0492016
0.0361431
0.0403296
0.0551825
0.0548747
0.0578803
0.040274
0.0354002
0.042832
0.0426407
0.0528232
0.0455834
0.045273
0.0463833
0.051137
0.0597112
0.0471564
0.0542437
0.0610233
0.0554544
0.0524888
0.040278
0.048107
0.041964
0.046048
0.0545478
0.0395613
0.0466736
0.0421697
0.036772
0.0609345
0.0623481
0.0484395
0.0381386
0.0513132
0.0444789
0.0507326
0.0533112
0.0440956
0.0454983
0.0450316
0.0522199
0.0501795
0.0508812
0.0388592
0.0590866
0.0610453
0.0436904
0.0523283
0.0591547
0.0351646
0.0413027
0.0443945
0.0351183
0.0391675
0.0387943
0.0426688
0.0538278
0.0615122
0.041557
0.0432323
0.0408943
0.0607257
0.0578427
0.0410691
0.0535259
0.0399531
0.0424032
0.055246
0.0374584
0.0427551
0.0429587
0.0499066
0.0361497
0.0618612
0.0574388
0.0485312
0.0388992
0.0576402
0.0630861
0.0453026
0.0646034
0.0479321
0.0453401
0.0590958
0.0380866
0.0370489
0.0409461
0.0459679
0.0504399
0.0584841
0.0456497
0.0493774
0.0466271
0.0612783
0.0508767
0.043634
0.0459429
0.05534
0.051069
0.0543789
0.0605392
0.0505182
0.0368941
0.0639649
0.045556
0.0560129
0.0613196
0.0468372
0.0507067
0.0461909
0.0383146
0.0510827
0.0529797
0.0363183
0.0505669
0.06218
0.0391671
0.0412841
0.0471327
0.0478733
0.0449518
0.0434538
0.0473673
0.0530114
0.0364003
0.0409771
0.0649813
0.0424651
0.0423813
0.0506801
0.0504993
0.0570345
0.0616083
0.0373601
0.0581918
0.046857
0.0407546
0.0351565
0.0407814
0.0419762
0.0575922
0.0585269
0.061699
0.0413718
0.0570526
0.047522
0.0350683
0.0355757
0.035131
0.0375321
0.0464574
0.0456965
0.0390644
0.0377182
0.0568238
0.0462302
0.0422483
0.0461606
0.0355666
0.0410002
0.0363108
0.0644964
0.0449212
0.0564517
0.0366468
0.0435392
0.0461914
0.0507891
0.0463741
0.0579159
0.0353049
0.0522075
0.0628262
0.0369131
0.0372307
0.036164
0.0479142
0.0593636
0.0589673
0.0459511
0.0630875
0.0543624
0.0435257
0.041404
0.0587728
0.0373262
0.055246
0.0460499
0.0643166
0.052197
0.0407167
0.0429319
0.049461
0.0538086
0.0535987
0.0555375
0.0617891
0.0577697
0.0617976
0.0508189
0.0478598
0.0509724
0.0358029
0.0388494
0.0520357
0.0539538
0.0508449
0.053161
0.0614743
0.0548722
0.0440432
0.0602801
0.0617664
0.0585098
0.0451525
0.0555411
0.0543443
0.0416174
0.0591259
0.0630312
0.0363631
0.0453702
0.0626339
0.0419263
0.0409141
0.0524528
0.0448533
0.0381113
0.0391452
0.0486948
0.0480342
0.0428357
0.0424188
0.0478568
0.0411673
0.0551248
0.0430892
0.0360391
0.0477043
0.0481021
0.0504494
0.0506877
0.0509735
0.0530505
0.0409816
0.056105
0.0554911
0.0612975
0.0634883
0.0615305
0.057709
0.041303
0.0565761
0.0643745
0.0416854
0.0603045
0.0450896
0.0633228
0.0358845
0.0383802
0.0576741
0.0359267
0.046525
0.0359496
0.0568466
0.0514572
0.0586898
0.0452965
0.0356299
0.0499625
0.0457317
0.0462116
0.0554049
0.0368552
0.0646904
0.0559065
0.0482028
0.0395853
0.0458989
0.0435566
0.0478374
0.0482671
0.0580353
0.0407896
0.0638633
0.0375758
0.0372944
0.0583268
0.0551652
0.0505248
0.0446136
0.0578708
0.0549523
0.0413842
0.0360544
0.0587744
0.0517029
0.0405332
0.0520079
0.03749
0.0552219
0.052859
0.0613972
0.0484552
0.0580578
0.0510166
0.0576292
0.0557864
0.0438119
0.0578788
0.0391456
0.0599599
0.037927
0.0435566
0.0451863
0.0539309
0.0365974
0.0399685
0.0517053
0.0628557
0.0616908
0.0398794
0.0467394
0.0482883
0.0402675
0.0456878
0.0568947
0.0432371
0.0451629
0.0531224
0.0540397
0.0626634
0.048916
0.0611588
0.0405609
0.048176
0.0412128
0.0625572
0.0391549
0.0407401
0.0569089
0.0571409
0.0362387
0.0409316
0.0489835
0.0488828
0.0396936
0.0626564
0.0379022
0.0449103
0.0358577
0.0629408
0.0519451
0.0633223
0.0472007
0.04689
0.0462792
0.0616327
0.040512
0.0620342
0.043108
0.0398904
0.0523882
0.0457999
0.0374756
0.0388685
0.0388747
0.052375
0.0370345
0.0435823
0.0507645
0.0584163
0.0352788
0.042551
0.0540761
0.0462188
0.0421728
0.0439678
0.0469793
0.0595652
0.0538397
0.0634669
0.0535387
0.0614266
0.050205
0.0521975
0.0544743
0.0585395
0.0592518
0.0537797
0.0363029
0.0385752
0.0505266
0.042697
0.0393593
0.0541931
0.0400913
0.0472026
0.0412659
0.0501136
0.0489981
0.0465119
0.0479148
0.0546739
0.0556295
0.040048
0.0376999
0.0353625
0.0482691
0.044303
0.0361955
0.0524829
0.0587744
0.0396157
0.0518864
0.0567468
0.0510049
0.0369445
0.0463736
0.035227
0.0403134
0.0545391
0.0436521
0.0489602
0.057913
0.0424237
0.0352895
0.043202
0.0447122
0.0415427
0.035734
0.0452607
0.037417
0.0355139
0.0494308
0.0456283
0.0600131
0.0569196
0.0432359
0.0376312
0.0443656
0.0604266
0.0481156
0.0374703
0.0484539
0.0386518
0.0519231
0.0572771
0.0432914
0.0617997
0.0519181
0.0384085
0.0448871
0.0373295
0.0524805
0.04303
0.0604121
0.0606707
0.0626751
0.0398882
0.0623167
0.0421476
0.0540488
0.043444
0.0449654
0.0644329
0.0539663
0.0644667
0.0488415
0.0643364
0.0606204
0.0507248
0.0519941
0.0469458
0.0445881
0.0354457
0.0579175
0.0523906
0.0528426
0.0446669
0.0581814
0.0435419
0.0521207
0.0491358
0.0610537
0.0442789
0.0351256
0.0602167
0.063329
0.0453545
0.0479789
0.0410495
0.0471587
0.0393188
0.0645356
0.0590112
0.0447937
0.0470354
0.0406482
0.0577566
0.0567647
0.0609065
0.0354084
0.0585399
0.037034
0.0560315
0.0416045
0.037136
0.054311
0.0549537
0.0456656
0.0492361
0.0421934
0.0610064
0.0496478
0.0395387
0.05476
0.0587325
0.0450671
0.0631942
0.0584897
0.0573028
0.0388144
0.0397312
0.0568723
0.0357871
0.0452473
0.0575935
0.0622453
0.0502724
0.0434931
0.0487492
0.0415423
0.0458344
0.0434947
0.0477029
0.0444869
0.0491468
0.0442579
0.0446052
0.0388656
0.0636098
0.0462095
0.0351669
0.0603414
0.0382595
0.0501921
0.0554158
0.0467468
0.057052
0.038084
0.0371511
0.0414121
0.051797
0.0420441
0.0368763
0.0402769
0.0608636
0.0368426
0.0416011
0.0446462
0.053316
0.0460679
0.0391608
0.0412922
0.036449
0.0469389
0.0502054
0.0453392
0.0468977
0.0604795
0.0466757
0.0395774
0.0455709
0.0592028
0.0574098
0.0464725
0.0364567
0.0515753
0.063514
0.0564498
0.0564812
0.0423262
0.0636175
0.06146
0.0612166
0.0369733
0.0631567
0.0557524
0.0591048
0.0375868
0.0432102
0.0356738
0.0398941
0.0599436
0.0502197
0.0422433
0.0512474
0.0432838
0.0516953
0.0430872
0.0611579
0.0502095
0.0566263
0.0416713
0.0459557
0.0420902
0.0480634
0.0385306
0.0353516
0.0628115
0.0442451
0.0384005
0.0579393
0.0467476
0.0434805
0.0408607
0.0479696
0.0485802
0.0603693
0.0423559
0.045909
0.0423207
0.0594522
0.0421343
0.0479683
0.0405039
0.0354769
0.0458182
0.0595115
0.0630505
0.0434482
0.0381441
0.0525377
0.0527756
0.0583099
0.0395246
0.0575589
0.0399672
0.0621637
0.0616777
0.0408155
0.0496324
0.0646219
0.0472205
0.0390027
0.0413517
0.0567015
0.0353029
0.0408902
0.0556924
0.0649288
0.0378857
0.0585123
0.0566487
0.0623002
0.0458864
0.0577273
0.0428058
0.0422872
0.0472454
0.0359649
0.0384795
0.0444867
0.0469275
0.0410858
0.0478699
0.0387549
0.0579437
0.0509476
0.0482404
0.0607814
0.0461359
0.0363493
0.0414235
0.0610676
0.0523573
0.0585695
0.0476845
0.0492653
0.0479084
0.0401287
0.0397681
0.036641
0.036006
0.0447138
0.0373336
0.0361792
0.0453336
0.0361182
0.0647996
0.0472239
0.0602581
0.047468
0.0449236
0.0629001
0.0607055
0.0542595
0.0626775
0.0512827
0.0577347
0.0406491
0.043762
0.0516909
0.0524476
0.0613084
0.0354209
0.0619919
0.0406388
0.0531572
0.0566786
0.0482012
0.0581516
0.0398876
0.036807
0.0545498
0.0606335
0.0532126
0.0614051
0.0367922
0.0585446
0.0507643
0.0471834
0.0608887
0.0595901
0.0575516
0.0568116
0.0441133
0.0419595
0.0431667
0.0532467
0.056063
0.057996
0.0554532
0.0355439
0.0361444
0.0554801
0.0373985
0.0405168
0.0423989
0.0571224
0.0418792
0.0444997
0.044028
0.0374294
0.0364089
0.0466187
0.0569201
0.0585991
0.0465299
0.0464027
0.047917
0.0371368
0.0458689
0.0442011
0.0552058
0.0640453
0.0581295
0.0413487
0.0588517
0.0482832
0.0440434
0.060324
0.058681
0.0457852
0.0393957
0.058728
0.0642134
0.0452631
0.0542831
0.0623891
0.0469055
0.0467457
0.0511057
0.039515
0.0518362
0.0443912
0.0560328
0.0441483
0.0641497
0.0505499
0.0544599
0.059875
0.051899
0.0401083
0.0569864
0.0449942
0.0566259
0.0625498
0.0356417
0.0526002
0.0529218
0.0381624
0.0612165
0.0647716
0.0488683
0.0633439
0.0418484
0.0576539
0.0550664
0.0561119
0.0502847
0.0440456
0.0399326
0.0501601
0.0384839
0.0410617
0.0363064
0.0608244
0.0397266
0.0396598
0.0362646
0.0419348
0.0571705
0.0436533
0.0434666
0.0451937
0.0388765
0.0537541
0.0385288
0.0401636
0.0403777
0.0442493
0.0449694
0.0621796
0.0563605
0.0370237
0.0639683
0.0488025
0.0590756
0.0399238
0.0381419
0.0496565
0.0602158
0.0561144
0.0490701
0.0591021
0.0415982
0.0374398
0.0469413
0.0545248
0.0564425
0.0358049
0.0414546
0.0357374
0.0468627
0.0372663
0.05393
0.0536586
0.0519564
0.0365802
0.0375769
0.0481973
0.0445502
0.0531296
0.045453
0.0437767