# vtk DataFile Version 3.0.
comment
ASCII

DATASET POLYDATA
POINTS 3308 double
1.73007 2.24242 1.2892
3.26944 1.51159 0.377262
3.09574 0.0326106 0.0804929
3.03078 3.16083 0.421435
2.76196 2.332 1.35694
2.61737 2.60813 0.0302077
0.0611912 2.58411 1.40988
2.44846 2.4722 1.87631
0.126159 1.1449 0.356941
2.81585 1.04208 1.04629
1.67393 3.1352 1.9831
2.56735 1.2307 1.43836
0.43807 0.503929 2.06677
0.814976 0.977487 0.860662
3.166 0.0714474 0.646098
0.870071 3.26403 1.52892
3.40319 0.963215 0.931847
2.55737 2.84618 1.09874
1.95412 1.869 0.23036
2.45798 1.75767 0.250487
0.430713 1.81952 0.987438
0.80738 0.605765 0.135865
1.26378 2.20747 0.4988
0.2157 2.85599 1.28689
2.81182 1.30881 1.69603
3.00664 2.55176 0.0456611
1.12876 1.82709 1.77199
0.876018 0.928687 0.284924
1.11021 0.484306 0.492536
1.29384 0.132721 0.832443
3.03561 3.40633 1.99394
3.20085 2.16786 0.187704
3.3385 2.34379 0.789007
1.47485 3.1053 1.22479
2.34842 2.35305 0.087837
2.03907 2.22492 1.94765
1.60104 0.0439576 0.919737
2.77949 2.42641 1.72891
2.65691 1.77237 0.410424
2.79722 1.67254 2.0921
0.634237 2.27593 1.04953
1.02166 1.93824 1.86284
0.832644 2.659 1.50997
2.49033 1.83433 1.8598
1.55364 0.334318 0.183686
1.68899 2.24221 0.406716
1.49828 1.332 0.767074
2.80698 1.64556 0.316166
0.457736 3.18161 0.717535
1.84806 2.05689 0.520985
0.420336 0.367518 1.99132
2.4172 1.40327 0.301761
0.533822 0.99663 1.61696
1.89733 2.00182 0.947567
1.04481 0.156114 0.400656
3.02944 3.3518 0.937713
1.94103 1.7092 0.531033
2.87818 3.10754 0.756643
2.48558 2.66469 1.87325
2.77214 2.41319 0.593482
2.54459 3.29067 0.0296813
1.10062 2.02419 0.123228
1.66414 0.0588703 1.43999
0.953451 1.50361 0.300374
0.429863 3.36139 0.0160713
3.26683 2.90712 1.27593
2.2811 0.928761 1.4943
1.25787 3.3951 1.98324
1.85716 3.18822 1.56084
3.30314 1.10926 0.637701
0.914748 0.87661 0.962058
0.914934 1.77496 1.04428
2.94378 1.90968 1.73144
1.2206 0.780021 0.252949
2.55591 3.28587 0.627312
0.189984 3.04618 1.1029
3.4943 2.6158 1.05513
2.29823 3.28896 1.31149
2.90615 1.38566 2.09659
2.95447 2.42736 0.167615
2.5247 0.145256 2.04462
0.550574 0.699346 1.60864
0.601959 1.14038 1.12623
0.564826 2.96315 1.67043
0.698802 2.46294 0.695922
1.52881 0.619296 0.111908
0.635234 3.03845 0.639472
2.07738 0.0971626 0.206371
3.44706 2.96397 0.0362309
2.4501 2.02393 0.302338
2.66266 2.24869 0.240184
1.84755 2.31897 0.274604
1.98354 0.129141 1.27963
2.28225 1.30833 0.639746
2.71268 0.309068 1.08075
0.860164 0.605194 1.12806
2.90149 1.43934 1.8279
2.0342 2.37631 0.782334
1.22554 2.72188 1.69088
0.982493 2.73669 1.61244
2.60866 0.828992 0.999523
2.56281 2.73717 0.356998
0.513326 3.35639 0.893961
3.48975 1.07523 0.606072
0.557709 1.61741 0.874073
1.64084 1.67429 1.36242
1.3689 2.60689 0.802749
3.14522 1.23171 0.379534
3.46357 3.35636 0.732451
2.58324 1.34253 0.201988
2.28006 2.0988 1.40538
2.59461 0.646729 0.498396
3.30748 3.23008 0.43453
1.14825 0.564449 1.78871
2.18198 3.35676 0.756338
1.13936 1.51603 0.59156
0.773077 2.05991 0.201477
0.672743 1.84227 0.269777
2.7538 1.09206 1.92445
0.791202 0.34279 1.69572
2.49276 2.09837 0.888641
2.56023 2.25414 1.07195
2.31616 0.509828 0.484726
1.55029 3.09007 0.152685
1.8852 2.88947 0.435392
0.50285 0.0214408 0.696492
0.868285 3.09168 0.560048
3.42296 2.89182 0.234403
2.2137 1.06772 0.634035
1.73358 2.62618 0.489008
0.00177142 1.10304 1.56011
0.00959683 0.183762 1.60723
0.220248 3.16914 0.255832
0.129435 0.508283 0.257224
3.38852 2.64586 0.510052
1.41697 0.133905 0.985429
1.50399 0.566422 0.631232
0.178271 0.089103 1.93963
0.226924 2.23344 1.50948
2.17502 2.43456 0.626885
3.53899 2.33386 0.204502
2.09755 3.09372 0.989825
1.2339 0.3089 1.3721
1.48546 2.57981 1.51443
0.305967 0.638578 1.7876
2.46507 0.844583 1.87724
1.16462 0.805847 1.4558
3.14212 2.36839 0.293525
3.40438 3.19381 0.0889859
3.43529 0.136496 1.37911
2.28063 0.155117 0.749835
0.242018 1.8034 1.87589
2.756 1.58499 1.26598
1.90997 0.294302 1.50643
0.968103 1.47291 1.40645
0.822666 3.06596 2.10416
0.973252 1.79129 1.61475
0.437856 1.6319 1.30729
2.24595 2.31515 1.80397
0.774135 1.71345 0.885302
1.64106 2.70209 0.643252
3.0709 2.71657 0.379787
0.148822 1.87395 0.691194
3.28035 3.37647 1.67508
2.2111 1.51088 0.812358
0.8356 0.144959 0.418345
1.81054 0.896296 0.982378
2.45547 0.479805 0.256341
2.98275 1.59473 0.419532
2.24896 1.153 1.54295
1.72883 0.551381 0.119201
1.01966 0.983188 1.67571
2.48462 2.23165 0.276163
1.10015 1.85837 0.227777
0.0867976 2.5891 0.498771
0.73322 2.89264 1.34682
0.311977 0.658844 0.425463
3.10802 0.654302 1.85784
1.39991 1.22025 0.50195
1.83839 0.988719 0.179051
0.660541 2.13591 1.98691
3.33034 1.00962 1.55105
2.38749 3.29037 0.158091
2.71851 1.55642 0.0876345
3.20221 0.550006 0.260219
1.62952 0.230002 0.591077
1.92183 2.27066 0.907058
1.21224 2.36034 0.117834
0.830698 1.6414 0.0849914
2.28745 3.14397 1.48054
2.67973 1.74611 1.34365
3.08253 1.84006 1.20199
3.02094 0.280615 0.425781
1.50571 1.74282 1.92802
1.49359 1.20507 0.279715
0.972762 1.19362 0.659852
1.7657 3.28678 2.09115
1.85058 2.34559 1.91552
0.322608 2.84547 0.176442
1.21885 3.23957 0.466914
0.145309 1.65196 2.07537
2.55391 1.9531 0.464083
3.15934 0.178128 1.46831
1.75341 2.88265 0.642024
3.2577 1.61052 2.05516
2.74561 1.21367 1.36083
2.66726 2.35462 1.62371
2.04981 1.10055 2.09411
2.82274 0.182081 0.465229
2.46582 0.85046 1.67474
1.75488 3.33071 1.70459
0.0310464 1.19887 1.39629
3.40451 0.466988 1.41675
1.46178 2.70611 1.01765
1.87235 0.844072 1.58135
1.60662 1.82986 1.02204
0.110683 0.947159 0.300125
0.180531 2.40502 1.33223
2.10716 1.56325 0.50384
2.67733 1.43333 0.959382
3.16447 2.50337 1.97887
2.97831 2.93438 0.242926
2.29379 0.247226 0.940213
2.34995 2.88778 2.07829
1.46989 2.01451 0.697345
0.725457 3.42398 0.710053
1.21246 0.101673 1.48831
2.49939 2.7355 2.05361
0.988487 2.64479 0.66
1.13631 0.529407 0.278783
2.98648 1.59768 0.041044
2.40312 0.0812387 0.0805768
2.20883 2.81563 0.143353
0.955009 1.1279 1.53422
2.17095 2.18516 1.2184
0.341815 2.4064 1.19765
1.6887 1.72188 0.279409
2.42579 1.0333 1.53777
1.94764 1.41373 1.55628
1.87608 1.81913 0.78711
0.026679 0.0939206 1.2538
2.93278 1.19387 1.63091
1.37162 2.10662 1.8759
0.156145 1.60841 1.87786
2.65559 2.79488 0.675138
0.411335 3.08934 1.27211
3.23094 0.900977 1.01104
1.52827 1.0569 1.65924
1.26135 1.31745 0.881308
3.11229 2.06275 1.68413
3.36281 0.555337 0.91855
1.60816 1.05304 0.170762
1.34901 3.33799 1.61785
3.1802 1.30245 0.679005
1.20556 0.305948 0.46043
3.26649 0.335774 1.75555
0.0558017 1.45669 1.79124
1.04661 0.463842 0.720383
1.97632 3.05831 0.583807
1.21828 1.3111 1.40851
1.20639 0.940931 0.615214
3.24543 1.89537 0.618907
1.39551 0.662412 1.71064
2.88894 0.89268 0.666452
1.16003 0.852654 0.993301
3.41044 3.36754 2.08985
2.55007 3.1178 1.86481
2.29279 2.73491 1.73752
1.35215 0.610253 0.180645
2.07804 0.0603292 0.630135
1.86457 0.0150961 0.506949
0.269548 2.71377 0.349947
2.46662 2.59424 1.29452
2.75674 2.88907 1.73956
1.74072 3.22635 0.887567
0.492781 1.72363 0.431853
1.92787 0.109005 0.935633
1.48949 3.27245 0.205135
2.77776 1.5188 0.408025
0.822215 2.06149 0.993571
3.47099 0.869987 0.570894
1.79806 1.85176 0.407947
2.68932 2.96698 0.798619
1.94436 1.39027 1.99996
2.90885 0.636091 0.110733
2.59563 2.33386 1.93761
3.08699 2.81954 0.224544
0.847113 0.60132 1.46391
0.292666 1.65393 0.615785
1.75737 0.589355 1.57411
0.952443 0.202179 0.264324
1.11202 1.64016 0.339997
0.362341 1.36445 1.64288
3.01273 2.89848 2.08137
1.57185 0.947165 1.95539
0.726141 2.4967 1.50156
1.65496 0.919271 0.670565
0.989528 0.739822 1.355
2.5784 0.0463968 0.203707
1.81926 1.2085 0.235803
0.669918 0.329394 1.87927
0.88078 0.130273 1.95115
2.38188 0.235096 1.16352
0.529635 0.560237 0.847933
0.198138 2.23733 0.518662
2.33901 2.98571 0.826249
1.48019 0.193937 0.4784
1.39926 0.272585 1.33025
1.36002 0.821538 0.710853
3.25621 1.34316 1.00844
2.032 0.930861 0.118453
1.27231 2.94677 1.57526
2.94572 1.24225 0.417434
0.834263 1.4812 1.90994
3.08723 1.57623 1.49779
0.517599 1.97922 1.11458
1.63989 2.80721 1.07573
1.17187 1.36547 0.000321971
3.15271 2.15356 1.98972
1.80261 2.05562 1.26341
3.14897 2.99034 0.115178
0.58209 1.56602 1.82221
0.403278 1.1873 0.99111
0.633027 0.0228907 2.01653
0.0233038 2.42461 1.22731
1.00236 2.51839 1.22954
0.640539 2.51212 1.10987
3.2963 3.21589 1.51987
3.24437 3.40564 2.01994
0.519702 2.89476 0.16274
2.05065 2.79701 0.348156
2.16389 2.47032 1.74342
1.38532 2.21436 0.14075
0.558379 3.28216 0.589456
0.723261 0.0882192 0.0925393
3.00579 2.74413 0.862284
0.187816 2.85327 0.045208
1.96754 3.06653 1.11602
2.86598 2.96348 0.918641
2.2127 1.38733 0.229253
3.13977 2.72595 1.60484
1.00682 2.34138 0.463419
0.311023 3.32297 1.79947
3.22038 1.68455 1.67983
1.66103 1.23399 0.793098
1.55568 1.59289 1.75471
0.365782 2.83896 0.538512
2.57282 2.48202 1.12147
0.884039 2.6406 0.352621
3.38074 0.368446 0.477574
1.58276 1.29252 1.17944
3.28726 0.349405 0.27255
2.82262 2.36649 1.92471
2.61842 0.798159 0.833956
1.85666 1.00664 1.15367
2.92294 1.90929 0.161213
1.35383 1.54506 0.519888
1.20764 0.487303 0.101512
0.920962 0.0732188 1.03744
2.28314 1.15047 0.812031
2.68583 0.799008 0.606353
3.21043 0.422706 0.430898
2.20754 1.09884 1.10934
3.19229 3.11103 1.26399
2.78811 1.88247 0.0114711
2.69959 1.89101 0.675589
2.95396 1.10545 1.34888
1.07284 3.39839 2.03169
2.0789 2.58066 0.11708
2.37585 0.253551 0.488586
0.258235 1.66461 1.13935
3.28699 2.62256 1.05984
0.598208 0.187745 0.627448
0.0219981 1.4098 1.21702
1.42321 2.81455 1.54609
2.93405 0.293959 0.189642
1.76235 1.44272 1.8364
0.103252 2.05094 2.04541
1.50705 0.109451 0.131353
1.6881 0.369267 0.472926
0.0657294 2.85941 0.539965
2.5562 3.0465 1.52798
1.76238 2.98011 0.857466
1.82782 0.834459 0.311946
0.527854 1.08735 0.526358
0.85361 0.32573 0.453952
3.47805 1.56469 0.772566
0.115366 2.13239 0.390554
1.93462 0.478346 0.850626
3.11985 2.21498 0.935142
0.28506 2.456 1.03696
3.35463 0.149093 0.985905
1.05487 3.20738 1.29581
0.887067 1.04166 1.78053
3.35008 2.24065 0.557925
0.208729 2.60104 1.73064
2.45192 1.54995 1.79724
0.175629 2.22486 0.833441
[...]
POINT_DATA 3308
SCALARS radius double 1
LOOKUP_TABLE default
0.0737706
0.0838644
0.102576
0.0861052
0.0777752
0.0853862
0.0882717
0.0830219
0.107059
0.127062
0.0892376
0.0941053
0.0846401
0.0913739
0.0893259
0.105903
0.0880896
0.0731794
0.112914
0.127385
0.107977
0.103697
0.0715427
0.101492
0.0978217
0.0751657
0.0942598
0.126206
0.119771
0.0928228
0.104466
0.126731
0.114278
0.0871606
0.0839504
0.123473
0.112555
0.0839417
0.128692
0.0991022
0.119884
0.0778975
0.0926444
0.0921915
0.106616
0.115604
0.0723072
0.077005
0.108742
0.11509
0.0723097
0.119999
0.0986297
0.117236
0.0803281
0.100937
0.111889
0.083036
0.089243
0.0889286
0.0829436
0.0744346
0.105419
0.100415
0.126624
0.0998748
0.0828301
0.107547
0.10947
0.0745863
0.0815068
0.120906
0.120644
0.120931
0.122355
0.11498
0.0768329
0.11376
0.120872
0.10715
0.0805221
0.129074
0.127583
0.0783523
0.0830071
0.0841507
0.123776
0.118625
0.0831086
0.119366
0.0794506
0.104648
0.0830318
0.129781
0.0914033
0.0762594
0.109217
0.0839294
0.0892079
0.104907
0.0718094
0.129174
0.101368
0.0989212
0.102724
0.109771
0.0788941
0.0980965
0.0788343
0.0702968
0.117802
0.114582
0.112382
0.0933284
0.0823875
0.100063
0.089127
0.0720545
0.101358
0.108502
0.121994
0.119935
0.122451
0.123241
0.122661
0.118187
0.0823551
0.129438
0.106273
0.102346
0.116554
0.103379
0.0975013
0.129785
0.117198
0.103194
0.110173
0.0942454
0.118593
0.107455
0.113545
0.101495
0.071833
0.126325
0.103104
0.0747121
0.0784807
0.1075
0.118535
0.107384
0.107436
0.115705
0.0713326
0.0946311
0.096342
0.122442
0.12994
0.124863
0.114019
0.0995233
0.0845497
0.103367
0.0757919
0.093867
0.104598
0.110883
0.106346
0.109796
0.0896012
0.108284
0.0955008
0.0833448
0.0930563
0.121858
0.102874
0.127417
0.0896425
0.0818056
0.123178
0.105422
0.0896433
0.0834298
0.0966518
0.0735485
0.10815
0.0858133
0.11468
0.108662
0.0755703
0.0842305
0.123201
0.0831141
0.125732
0.107928
0.119173
0.0868627
0.118831
0.086113
0.0981649
0.125572
0.119483
0.0865185
0.0752049
0.122907
0.0837089
0.10132
0.0872569
0.115912
0.098502
0.129411
0.0889046
0.0762471
0.127037
0.0731529
0.0764373
0.0873852
0.0937075
0.11091
0.111653
0.0862485
0.0762379
0.0753389
0.104689
0.10964
0.114157
0.10688
0.114745
0.105255
0.0910946
0.100674
0.111494
0.116641
0.123568
0.129499
0.115484
0.0993182
0.0822077
0.091986
0.108348
0.127248
0.0800019
0.0819754
0.105533
0.0838091
0.127714
0.0770181
0.0777686
0.128816
0.0814766
0.105555
0.0947842
0.100891
0.112918
0.0926043
0.0851741
0.113766
0.118397
0.108235
0.12061
0.0795115
0.099113
0.107629
0.110964
0.0934574
0.127012
0.0783367
0.107162
0.0961217
0.106559
0.129022
0.115937
0.126375
0.118602
0.0741928
0.128856
0.111232
0.108487
0.071451
0.0759092
0.0927321
0.0783148
0.125052
0.0871406
0.119183
0.0828846
0.103523
0.0841646
0.118959
0.0847796
0.0702124
0.0914649
0.112994
0.0903475
0.0869771
0.117327
0.101762
0.122836
0.108331
0.100591
0.114115
0.112885
0.0994903
0.124687
0.0950788
0.095613
0.12466
0.105415
0.0989238
0.118044
0.075812
0.0870741
0.11189
0.105651
0.097947
0.102258
0.112675
0.0853503
0.0991932
0.0793838
0.0970266
0.127975
0.127972
0.11756
0.118947
0.0794371
0.0701597
0.102222
0.111593
0.106134
0.10558
0.087981
0.0701243
0.0867202
0.0837647
0.093407
0.0922192
0.0903508
0.0776834
0.127038
0.0980429
0.120561
0.124396
0.0858159
0.0712567
0.117081
0.0937784
0.122084
0.114558
0.0783779
0.0769099
0.0827155
0.0900915
0.126343
0.0972148
0.093499
0.121755
0.109504
0.094381
0.0901089
0.103989
0.0910445
0.0975419
0.113398
0.114979
0.0820036
0.0830666
0.0839308
0.0785844
0.0944884
0.0762342
0.123449
0.0985925
0.0860338
0.0815063
0.0834073
0.113046
0.11886
0.0806016
0.108679
0.10666
0.0706026
0.12613
0.115015
0.099342
0.109223
0.0743626
0.0887782
0.0796739
0.0812973
0.0837664
0.0782718
0.123063
0.0891608
0.0957533
0.123253
0.099688
0.0717902
0.120557
0.0874218
0.0854714
0.0731198
0.126723
0.0917439
0.0774965
0.124695
0.103862
0.103206
0.0779943
0.129726
0.098148
0.0904999
0.0874203
0.0710117
0.100865
0.129005
0.0886058
0.109138
0.108672
0.0959031
0.0809907
0.124995
0.0770381
0.078498
0.0942911
0.090984
0.110521
0.0860021
0.10472
0.0867475
0.129841
0.105341
0.0885522
0.0857442
0.0916367
0.0904986
0.0923145
0.116259
0.125843
0.108025
0.128443
0.112786
0.0858966
0.127884
0.107857
0.116774
0.125914
0.0926829
0.119741
0.0931408
0.118409
0.112489
0.12448
0.0956536
0.101534
0.107861
0.113467
0.11274
0.108142
0.115373
0.0828413
0.112605
0.123845
0.0713741
0.087466
0.119824
0.0736134
0.128123
0.0785105
0.0801073
0.104545
0.0784313
0.0876931
0.129739
0.112459
0.120741
0.106467
0.114815
0.105539
0.0830065
0.0964537
0.0734897
0.077435
0.0920909
0.115704
0.07649
0.10263
0.12066
0.117834
0.0713414
0.0849138
0.12248
0.110639
0.0862216
0.0965089
0.102292
0.0880829
0.100087
0.129321
0.0982728
0.120464
0.0984373
0.0724991
0.0903409
0.0742012
0.123089
0.113654
0.111085
0.079715
0.117911
0.120574
0.11224
0.0708199
0.0774373
0.0803856
0.108469
0.104281
0.114132
0.115807
0.11429
0.0792478
0.11213
0.123508
0.0851176
0.105156
0.112717
0.10548
0.114985
0.124385
0.094014
0.0836283
0.106446
0.0806633
0.101063
0.0915776
0.103103
0.0866513
0.0920615
0.0740846
0.0856013
0.129316
0.0966878
0.115956
0.108579
0.119383
0.093125
0.0849053
0.12628
0.103326
0.0912028
0.124749
0.0978401
0.120351
0.122572
0.101598
0.10885
0.128079
0.126809
0.0805231
0.129757
0.105448
0.0924136
0.128839
0.111821
0.106548
0.0931462
0.0946862
0.0772227
0.0804463
0.10413
0.0892043
0.10484
0.108441
0.122691
0.126558
0.122701
0.0833303
0.0985124
0.108022
0.0719491
0.119991
0.0739047
0.106258
0.114929
0.103972
0.0847062
0.0899145
0.104197
0.121901
0.100108
0.0755222
0.120883
0.096414
0.0990186
0.0727478
0.124017
0.104585
0.116964
0.0827964
0.108783
0.0976956
0.0946221
0.115272
0.0703386
0.0853783
0.112854
0.0712145
0.11725
0.0720157
0.0771169
0.0999676
0.0976179
0.122789
0.103627
0.119923
0.0808678
0.104221
0.126744
0.100237
0.125124
0.126934
0.0708412
0.0741428
0.096226
0.0829353
0.095485
0.102597
0.0756759
0.113063
0.0996179
0.120774
0.123706
0.0895136
0.120755
0.116212
0.096953
0.101482
0.118083
0.0883966
0.0974154
0.0944119
0.07654
0.0747537
0.108849
0.115215
0.107409
0.0949629
0.105375
0.10068
0.110032
0.126585
0.120512
0.0887228
0.128299
0.1249
0.0750032
0.0763683
0.0712835
0.108895
0.107256
0.107319
0.12817
0.122399
0.106342
0.0789356
0.0840359
0.113364
0.102523
0.108485
0.0918554
0.0913231
0.097336
0.121121
0.115178
0.12558
0.0931253
0.12769
0.0860013
0.0914741
0.102577
0.0850452
0.0731635
0.0813893
0.0736297
0.116573
0.123777
0.122876
0.0921204
0.071018
0.102278
0.12048
0.083975
0.101416
0.0967891
0.108604
0.111606
0.125072
0.104879
0.0998218
0.129898
0.0959086
0.0969902
0.0758366
0.0715856
0.0921817
0.094284
0.117153
0.103664
0.124972
0.127132
0.10821
0.118421
0.0889004
0.0770667
0.0858064
0.105167
0.121383
0.0763469
0.119189
0.0965907
0.111252
0.128688
0.105171
0.122593
0.124583
0.124255
0.0706962
0.11505
0.102442
0.1103
0.0820892
0.122143
0.0723714
0.0926063
0.114833
0.109164
0.0818926
0.0919653
0.12857
0.116573
0.0979526
0.0806907
0.091783
0.118682
0.123561
0.0924103
0.0775971
0.0791399
0.119829
0.102757
0.127373
0.0940263
0.0793389
0.0747096
0.074767
0.0770326
0.0871619
0.111035
0.118739
0.103118
0.0716994
0.129172
0.106971
0.102827
0.095623
0.0952423
0.108323
0.0703354
0.124686
0.126843
0.123454
0.0713046
0.114977
0.0971843
0.129789
0.11202
0.0761213
0.108382
0.115043
0.119511
0.0796481
0.0717938
0.125567
0.0799218
0.11072
0.087297
0.0868204
0.0807376
0.116925
0.110653
0.124393
0.0724685
0.0872786
0.0808582
0.0740803
0.0867586
0.122191
0.0862864
0.074907
0.123031
0.0762138
0.0949671
0.106215
0.105173
0.0950106
0.113856
0.0751241
0.0823171
0.128386
0.112368
0.0923947
0.0750179
0.0978631
0.0763075
0.0878068
0.0739544
0.119827
0.0801933
0.0836864
0.123263
0.1111
0.105397
0.10404
0.109853
0.0947034
0.098049
0.0754774
0.105288
0.124038
0.125355
0.119016
0.0877905
0.100686
0.0817315
0.118385
0.0931829
0.0763827
0.073488
0.108967
0.0877222
0.0799345
0.127912
0.0784103
0.126756
0.120235
0.108603
0.103849
0.121169
0.116921
0.120474
0.0752448
0.0874931
0.121962
0.11556
0.101439
0.120153
0.0797191
0.11915
0.084157
0.12154
0.122206
0.0993747
0.0838573
0.109216
0.0987535
0.100104
0.0964458
0.0818777
0.0773967
0.0725067
0.0723738
0.0868301
0.0711304
0.0743259
0.0819588
0.104865
0.0940328
0.0946343
0.111512
0.12574
0.0726565
0.0802031
0.0969307
0.102324
0.0987969
0.0717956
0.120852
0.118912
0.109572
0.129106
0.0894384
0.0876954
0.121225
0.105861
0.0934343
0.106679
0.117357
0.0862305
0.079958
0.0774833
0.112763
0.0957987
0.0924703
0.116364
0.100039
0.0918196
0.0706724
0.0816869
0.106032
0.122696
0.0866485
0.0890852
0.11605
0.118656
0.0748344
0.122185
0.0741312
0.117595
0.0825146
0.0816441
0.10622
0.0885761
0.0736499
0.117128
0.0936
0.113428
0.0798194
0.0791827
0.0862064
0.0768523
0.108297
0.0718092
0.0741358
0.0793295
0.12603
0.119336
0.0898537
0.127144
0.0892775
0.12254
0.123083
0.109717
0.0829627
0.102965
0.0950282
0.12236
0.127819
0.0846934
0.0767706
0.120391
0.101557
0.113366
0.080201
0.127029
0.0988877
0.0759048
0.105607
0.0851032
0.116003
0.0786409
0.101797
0.0813483
0.12209
0.083537
0.0742611
0.0949817
0.0762456
0.0709791
0.102738
0.0845882
0.08923
0.105834
0.0992836
0.113071
0.0988474
0.117036
0.10278
0.115741
0.112153
0.0999347
0.118315
0.0753229
0.12794
0.0883721
0.0742227
0.0951599
0.0739749
0.119616
0.0841511
0.0729325
0.0924928
0.116317
0.125986
0.0741047
0.126101
0.0845425
0.112424
0.0809651
0.125482
0.0823622
0.114145
0.122003
0.094402
0.0725801
0.101785
0.0714514
0.104258
0.117707
0.0850375
0.119285
0.120325
0.0766371
0.0733799
0.0961468
0.1215
0.10465
0.114189
0.125016
0.126381
0.072361
0.100285
0.11927
0.0785506
0.0913885
0.105615
0.102048
0.105751
0.0764018
0.123462
0.0810589
0.109232
0.100528
0.0869355
0.0864398
0.0850352
0.0715764
0.107953
0.0876316
0.100859
0.077739
0.119017
0.129494
0.0849656
0.128719
0.119309
0.0832708
0.0799877
0.0922294
0.115687
0.116282
0.0910828
0.116162
0.118866
0.122596
0.087658
0.117032
0.127923
0.10532
0.0939981
0.0835218
0.0905786
0.0777681
0.0740928
0.0996771
0.109975
0.126258
0.0975834
0.100304
0.128898
0.120002
0.113525
0.101366
0.091783
0.0899146
0.101021
0.0932726
0.117567
0.102619
0.0863709
0.11497
0.0749869
0.104535
0.104206
0.0896793
0.118167
0.112993
0.113335
0.0743201
0.125012
0.109079
0.0844067
0.075111
0.0738998
0.10808
0.100633
0.127572
0.120746
0.0944973
0.108865
0.0902738
0.0815688
0.0745714
0.113414
0.0706412
0.0932435
0.110259
0.0733143
0.0983472
0.0899931
0.0706937
0.0929507
0.0761994
0.1174
0.115171
0.0993156
0.106941
0.100316
0.0860058
0.0845572
0.103589
0.0742205
0.0957591
0.1046
0.126177
0.0753037
0.105969
0.077519
0.113205
0.118392
0.120836
0.113566
0.104608
0.123703
0.122435
0.0841737
0.0744631
0.0740726
0.117599
0.0802365
0.0958863
0.099689
0.0893443
0.128774
0.127928
0.115269
0.118222
0.0745019
0.0752535
0.123359
0.111504
0.0857958
0.0896632
0.12917
0.0878381
0.0737777
0.0797527
0.108099
0.124854
0.0743855
0.0816996
0.102783
0.0920543
0.0801554
0.0750516
0.10707
0.128633
0.128511
0.0901634
0.129891
0.113442
0.0884909
0.114052
0.0784228
0.122601
0.0932724
0.0784975
0.0916809
0.0769545
0.0897935
0.112169
0.102312
0.0878579
0.10667
0.123068
0.128227
0.120088
0.0927292
0.11825
0.0768211
0.12741
0.121859
0.0757165
0.103612
0.0829344
0.0829013
0.0963161
0.102151
0.0945954
0.117454
0.0826699
0.129655
0.0796863
0.0725455
0.0789532
0.0748545
0.0917405
0.0971232
0.0795456
0.109067
0.0771528
0.0907576
0.0984352
0.0884406
0.12365
0.076376
0.0718618
0.0989511
0.106436
0.0780204
0.0870232
0.0808365
0.123924
0.12119
0.0772864
0.108542
0.0748104
0.0917834
0.0721296
0.0833386
0.0939237
0.0877447
0.125975
0.094987
0.0859718
0.0906628
0.096728
0.105262
0.108585
0.127687
0.075355
0.109753
0.103397
0.0796531
0.117644
0.128205
0.0911778
0.110049
0.0739958
0.112311
0.0854028
0.127953
0.0981666
0.127401
0.0727099
0.0925265
0.0818864
0.104916
0.0924573
0.0932537
0.127467
0.107885
0.0819247
0.0870725
0.104208
0.0901861
0.0852812
0.1018
0.109966
0.0955114
0.097148
0.105293
0.0804759
0.125929
0.116681
0.0948308
0.0981329
0.0843024
0.0935094
0.118155
0.0954926
0.124807
0.127547
0.095959
0.124952
0.0858029
0.0739396
0.128716
0.108977
0.109095
0.0924079
0.0900632
0.119562
0.11569
0.114115
0.080072
0.107019
0.111689
0.0928485
0.129265
0.0771424
0.0937837
0.101894
0.127457
0.0899794
0.108269
0.0859374
0.0908776
0.122349
0.110151
0.122747
0.0991626
0.121887
0.102832
0.0732698
0.0877175
0.0992978
0.107679
0.128869
0.116707
0.115932
0.1043
0.106144
0.122426
0.0786383
0.076274
0.0754215
0.0753153
0.10759
0.111979
0.0979916
0.0866769
0.112952
0.124816
0.0920236
0.0873784
0.127019
0.113901
0.110204
0.0864228
0.0889271
0.0990286
0.0708509
0.0913952
0.120271
0.123493
0.110503
0.124958
0.0997748
0.0829616
0.119742
0.0893337
0.0843463
0.119224
0.0714353
0.0733969
0.109807
0.102294
0.125529
0.0732816
0.0783549
0.12058
0.0705073
0.0970578
0.108445
0.107643
0.111945
0.114487
0.091835
0.0885106
0.104973
0.0780162
0.0810304
0.104625
0.0710952
0.0926966
0.0820962
0.117939
0.11765
0.115371
0.0921501
0.0786951
0.0736773
0.113402
0.122649
0.0722173
0.116398
0.0887713
0.10841
0.0971054
0.103545
0.121234
0.106384
0.117488
0.107417
0.12709
0.125932
0.0833436
0.113143
0.0974411
0.073839
0.127709
0.0781491
0.109585
0.0980266
0.108329
0.10046
0.0935274
0.0930517
0.0729099
0.0888037
0.0864884
0.072154
0.107386
0.103373
0.0858845
0.0973888
0.102304
0.0764575
0.118242
0.114824
0.112729
0.102955
0.115802
0.0916527
0.0870926
0.125939
0.0810326
0.125211
0.0880526
0.125917
0.129805
0.10522
0.104381
0.0748713
0.12533
0.0784635
0.11328
0.104979
0.0743171
0.106253
0.118189
0.115797
0.106412
0.0852619
0.0757782
0.0914588
0.0826509
0.070063
0.0711887
0.0792008
0.0812673
0.12486
0.0979931
0.0855603
0.125457
0.0825215
0.123664
0.113556
0.122702
0.0934619
0.0893775
0.0854878
0.127843
0.103921
0.106858
0.113095
0.0754791
0.0840908
0.0728158
0.0915564
0.0881854
0.0936484
0.0771103
0.126172
0.101057
0.117174
0.10862
0.0853443
0.102311
0.118142
0.0897434
0.0887435
0.11846
0.0711489
0.115915
0.0968875
0.0852001
0.125943
0.0939397
0.0956403
0.0972891
0.0993388
0.0810823
0.101675
0.111409
0.118027
0.112096
0.0715241
0.0899755
0.106864
0.0922133
0.078447
0.11947
0.0833459
0.115674
0.077602
0.113342
0.115123
0.0712106
0.123033
0.0765512
0.125534
0.116278
0.0805379
0.0915821
0.0807212
0.0845463
0.110647
0.105601
0.0945988
0.0826108
0.110976
0.0942439
0.108762
0.118497
0.112431
0.0803608
0.111122
0.0850698
0.111125
0.0991361
0.100845
0.124835
0.0870833
0.0782927
0.07437
0.0873042
0.0865775
0.0806529
0.0851267
0.128275
0.117664
0.10132
0.109968
0.0722438
0.117028
0.0919536
0.079914
0.119591
0.0899573
0.121915
0.100907
0.110514
0.0890518
0.0713011
0.120466
0.113321
0.114452
0.129486
0.0811569
0.121467
0.0820501
0.0819218
0.0785629
0.0784371
0.0826797
0.112739
0.0954454
0.118041
0.0907626
0.115491
0.0812305
0.10819
0.0792315
0.124645
0.115895
0.107177
0.116496
0.0719798
0.0825989
0.121874
0.108815
0.0746411
0.0899337
0.106193
0.0935948
0.0963298
0.0753972
0.0704942
0.0850319
0.0837922
0.0763387
0.0959628
0.0815803
0.0790842
0.110759
0.10436
0.0843561
0.0803292
0.073534
0.0957443
0.110392
0.0790602
0.117804
0.127825
0.115024
0.111264
0.100167
0.0823179
0.0853768
0.0943622
0.106175
0.117933
0.102997
0.121731
0.0903408
0.124706
0.0996612
0.0759572
0.110108
0.118731
0.0846399
0.116312
0.0971774
0.0714262
0.122941
0.11172
0.11805
0.116133
0.110731
0.115615
0.125102
0.102204
0.109422
0.127006
0.0819865
0.0965727
0.126946
0.118222
0.0975566
0.127895
0.088506
0.099043
0.122851
0.0835327
0.0702894
0.0822636
0.0711535
0.0972276
0.105288
0.121163
0.111125
0.101917
0.0872203
0.125939
0.0789334
0.123348
0.0737069
0.0877128
0.0928142
0.103563
0.127766
0.0969514
0.0986059
0.0816342
0.0734986
0.109846
0.110357
0.100756
0.125404
0.0843695
0.0983618
0.105712
0.0726271
0.0714257
0.102343
0.0799926
0.100306
0.110861
0.0983707
0.0728502
0.0891004
0.123352
0.0839194
0.103613
0.087737
0.111554
0.0868096
0.10056
0.0889883
0.112107
0.0751452
0.0732096
0.0971573
0.124103
0.0701053
0.116819
0.105414
0.0795993
0.105578
0.117191
0.116167
0.116395
0.073827
0.0860385
0.0932896
0.118982
0.0909173
0.0928439
0.122875
0.119844
0.0843048
0.071303
0.0898319
0.103245
0.0961439
0.0748018
0.0854718
0.0824697
0.0854952
0.0973239
0.0816205
0.119121
0.0700159
0.127852
0.112524
0.0758496
0.105157
0.0790569
0.123438
0.0743516
0.0752027
0.0969424
0.120419
0.0999668
0.070979
0.0822495
0.122191
0.129173
0.094676
0.104948
0.0917479
0.114923
0.120221
0.124997
0.113401
0.107025
0.0964112
0.0917184
0.0968921
0.0718857
0.096844
0.103508
0.119557
0.111976
0.108841
0.128581
0.120767
0.0899973
0.0944411
0.125262
0.125721
0.0785477
0.0741017
0.0844201
0.124939
0.102654
0.101861
0.10067
0.118601
0.100723
0.112067
0.120112
0.0987226
0.101774
0.107469
0.0760408
0.086086
0.099468
0.126014
0.073365
0.0885943
0.116406
0.0941268
0.0850527
0.124776
0.0867731
0.112103
0.109708
0.112181
0.079904
0.0909274
0.122295
0.109385
0.0810688
0.108354
0.113055
0.0782417
0.0923297
0.0720246
0.0798371
0.075898
0.117867
0.10113
0.0906324
0.0714147
0.11548
0.117443
0.0712158
0.0726876
0.095409
0.0749005
0.107576
0.0880097
0.105076
0.121889
0.107512
0.124506
0.12864
0.119065
0.124626
0.0909771
0.0778687
0.126879
0.101187
0.109057
0.110271
0.0782788
0.107068
0.0838835
0.1106
0.0979748
0.0798177
0.0911996
0.0788057
0.109736
0.101831
0.0762934
0.114176
0.108418
0.07869
0.0856551
0.114852
0.0984285
0.0975009
0.0978184
0.0852332
0.0721627
0.126741
0.0897492
0.128581
0.0919292
0.121329
0.106012
0.129323
0.0714293
0.1194
0.105268
0.0927894
0.121627
0.110626
0.0939915
0.0730012
0.106289
0.103169
0.0716259
0.128103
0.122804
0.0757201
0.127068
0.0943563
0.0848285
0.101263
0.0766587
0.129532
0.0933377
0.0928289
0.100515
0.0741571
0.0778189
0.0761983
0.0756605
0.0939691
0.075675
0.123087
0.0841742
0.0828566
0.104758
0.10224
0.121916
0.0728081
0.129097
0.121863
0.109768
0.10355
0.106841
0.0934923
0.0812861
0.10066
0.10614
0.0862326
0.104799
0.119086
0.0739816
0.11191
0.106458
0.129274
0.111231
0.106095
0.0914491
0.084866
0.0760827
0.0952723
0.0813079
0.0990266
0.110148
0.123629
0.0919504
0.129528
0.0924725
0.128005
0.0723839
0.0783358
0.122131
0.0979392
0.113561
0.0919235
0.110536
0.109514
0.0816477
0.111037
0.100689
0.0875028
0.107356
0.0858296
0.121694
0.0950989
0.0779585
0.0702972
0.104729
0.117003
0.0926514
0.0811478
0.107806
0.10389
0.0731407
0.0860177
0.076596
0.106327
0.102918
0.120285
0.0770009
0.129542
0.125202
0.0938445
0.117374
0.0835776
0.122632
0.0863013
0.128961
0.0770111
0.0704837
0.0993287
0.105592
0.0942098
0.0916469
0.0747607
0.0955395
0.0843396
0.108292
0.0875757
0.11104
0.0976642
0.0857334
0.110921
0.129116
0.107123
0.0725211
0.129669
0.09177
0.109575
0.120127
0.102838
0.0869071
0.0770279
0.105494
0.109876
0.12543
0.111225
0.0790728
0.106092
0.103494
0.111521
0.109344
0.0928823
0.109225
0.0955739
0.109229
0.0979014
0.120714
0.10226
0.125211
0.097265
0.0898383
0.0863363
0.125127
0.1278
0.10791
0.0724974
0.072018
0.123952
0.123698
0.125805
0.0867366
0.0866052
0.114139
0.123641
0.1086
0.0725463
0.0871784
0.0955749
0.076319
0.0704714
0.11656
0.0759879
0.100622
0.104403
0.086116
0.115851
0.0734748
0.0942509
0.117418
0.0857792
0.0962732
0.112289
0.0831005
0.0849375
0.0727941
0.0742315
0.114414
0.0947419
0.109847
0.118676
0.119424
0.0795503
0.0866496
0.129547
0.101609
0.113024
0.0983077
0.0998561
0.126467
0.102024
0.128198
0.0823395
0.128319
0.105655
0.0916634
0.0873748
0.0929482
0.089613
0.108161
0.115891
0.104779
0.079861
0.108497
0.0957935
0.12409
0.126268
0.0829829
0.118529
0.081482
0.0746335
0.094594
0.0906849
0.0867499
0.091333
0.124177
0.123415
0.0930688
0.0969007
0.117043
0.084218
0.0744842
0.113106
0.10683
0.0787379
0.0762351
0.0742964
0.0930289
0.0984262
0.0873156
0.0743889
0.0942951
0.101692
0.116832
0.0713054
0.117163
0.103156
0.126168
0.0710014
0.109622
0.124327
0.0959305
0.0775581
0.0936996
0.109111
0.118542
0.124945
0.108688
0.0947746
0.0851315
0.0894684
0.107433
0.0799955
0.107154
0.0885925
0.0769998
0.0956956
0.104784
0.117265
0.115802
0.0817603
0.114914
0.112296
0.115471