# vtk DataFile Version 3.0.
comment
ASCII

DATASET POLYDATA
POINTS 13796 double
0.101525 0.307345 0.331098
0.113217 0.121858 0.241204
1.85389 2.08418 1.95594
1.98976 2.08083 2.1103
0.305045 0.603149 0.0950387
0.214021 0.567523 -0.129818
1.94632 0.253468 1.11624
1.92936 0.396384 1.3171
2.37192 1.32775 2.17653
2.42304 1.19156 2.02411
2.54887 0.751234 1.98093
2.68608 0.670399 2.11599
1.30469 1.21615 1.99388
1.13731 1.14594 2.12428
2.31773 0.865839 0.791282
2.37022 0.954682 0.615601
3.07785 0.403585 1.88746
2.94415 0.545332 1.86483
3.07912 2.68108 1.98229
2.96838 2.69062 2.117
1.74864 0.0700607 1.71625
1.80001 0.15464 1.89371
3.66756 2.60906 -0.0116175
3.51303 2.60528 -0.127758
-0.126946 1.5821 2.031
-0.125174 1.609 1.84949
2.36083 2.11968 1.09451
2.53402 2.08195 1.20737
2.14699 2.61953 1.63545
2.09581 2.77749 1.49434
0.311023 3.32297 1.79947
0.455092 3.28641 1.90898
3.08253 1.84006 1.20199
3.0347 1.98953 1.30527
0.275686 2.66662 0.907978
0.356865 2.71309 0.733719
1.51721 1.1509 1.463
1.59061 1.30897 1.38299
0.00177142 1.10304 1.56011
0.150009 1.08043 1.74126
0.363396 0.209417 -0.0444444
0.27827 0.258527 -0.20879
0.103252 2.05094 2.04541
0.129106 2.05468 1.84369
3.08253 1.84006 1.20199
3.07095 1.6839 1.2015
0.920962 0.0732188 1.03744
0.921236 0.140114 1.21672
3.34172 2.51736 1.83751
3.29312 2.63541 2.04739
0.276599 0.57165 0.615851
0.399506 0.43519 0.756706
2.92463 3.074 1.32605
3.07949 3.17928 1.45518
0.179822 0.76398 -0.00748995
0.226095 0.93269 -0.0927906
2.99259 1.72582 1.58852
2.8605 1.64131 1.72021
3.04842 1.32871 1.94142
3.04666 1.22913 2.09436
0.805201 1.3455 2.05288
0.780208 1.21433 1.89379
3.40688 2.96348 1.44824
3.41805 3.17937 1.32908
2.40513 1.6903 1.82582
2.45918 1.71008 1.97318
0.189984 3.04618 1.1029
0.167839 2.96129 0.895196
0.383269 0.179003 1.75448
0.27827 0.258527 1.89558
2.9014 0.654192 0.680541
2.76763 0.657803 0.82533
2.34562 1.83418 2.03491
2.43207 1.98663 1.95905
0.660541 2.13591 1.98691
0.669259 2.12456 2.16981
0.457736 3.18161 0.717535
0.237634 3.12435 0.744529
1.34901 3.33799 1.61785
1.44799 3.2867 1.42999
0.268944 0.0921729 0.719774
0.105424 0.140782 0.756886
2.34995 2.88778 -0.0260853
2.49939 2.7355 -0.0507656
0.214753 2.89362 1.88431
0.365995 2.82666 1.99639
1.40181 0.340045 1.70028
1.42726 0.27085 1.85721
0.982881 2.89882 2.05398
0.88059 2.97605 1.89892
0.232337 1.28405 0.498023
0.362157 1.38282 0.320466
0.0451445 0.864825 0.895073
-0.0905575 0.837762 0.781309
0.163781 1.43749 1.42769
0.135249 1.54205 1.28748
0.346404 0.164005 0.163262
0.113217 0.121858 0.241204
1.34848 0.84896 1.95363
1.27043 0.734641 2.12866
0.384406 2.94596 0.0201616
0.365995 2.82666 -0.107977
3.28035 3.37647 1.67508
3.15876 3.34165 1.83271
2.28636 2.53677 1.96367
2.18482 2.42012 2.11084
1.25743 3.19066 1.25314
1.16887 3.28321 1.46633
2.80307 0.625122 1.92961
2.68608 0.670399 2.11599
0.682785 1.52743 2.10492
0.743855 1.65007 1.93803
1.62561 2.31165 2.10839
1.68136 2.40735 1.94807
0.832689 0.486247 1.93345
0.894428 0.30672 2.064
2.03442 1.72376 1.98856
2.12623 1.72801 1.80738
0.138559 3.24448 0.935583
0.300816 3.29244 1.11536
2.29279 2.73491 1.73752
2.14699 2.61953 1.63545
3.20085 2.16786 0.187704
3.3257 2.35087 0.203954
0.180531 2.40502 1.33223
0.0233038 2.42461 1.22731
2.67957 2.66441 1.92333
2.84223 2.7765 2.01958
2.82296 0.355552 0.0311416
2.65002 0.440668 -0.0282701
-0.039595 2.09167 1.33345
0.125925 2.0267 1.41185
0.032663 2.38545 1.9967
0.211757 2.26983 1.96602
1.14195 1.53229 1.15956
1.1038 1.53101 1.31315
0.0978164 2.14729 0.104534
0.241743 2.28036 0.241359
0.0978164 2.14729 0.104534
0.179409 1.98556 0.0617413
2.86598 2.96348 0.918641
2.71574 3.10776 0.981595
1.01966 0.983188 1.67571
0.887067 1.04166 1.78053
0.205077 0.303094 1.22815
0.238552 0.444808 1.11401
1.84856 0.235263 1.68505
1.93798 0.0576565 1.74256
-0.0880952 2.03593 1.73747
0.00185803 1.89711 1.56671
0.464586 2.50526 -0.0430705
0.426788 2.38391 -0.181622
0.383556 1.05481 0.0860861
0.374172 1.05963 -0.0604465
0.300289 1.52376 0.462203
0.232183 1.68516 0.340848
3.08765 0.583813 2.02505
3.24496 0.526148 2.15282
0.353972 1.73794 0.161606
0.232183 1.68516 0.340848
3.04666 1.22913 -0.0100118
2.90794 1.14977 -0.0770481
3.04842 1.32871 1.94142
3.07449 1.34531 1.74191
1.65192 1.42126 2.05779
1.54488 1.54846 1.98977
1.25915 0.695581 1.8539
1.11981 0.758022 1.97607
2.3077 2.16797 0.169561
2.26245 2.10193 -0.0629453
0.258675 1.31643 0.787163
0.439831 1.34581 0.870607
1.64389 2.8802 2.01861
1.7223 2.86132 1.80025
1.56455 2.15036 1.75055
1.70188 2.22697 1.92144
1.86825 1.07001 1.76256
1.86671 1.16452 1.95161
3.07785 0.403585 1.88746
3.06802 0.284113 2.04981
3.51718 1.73212 0.850135
3.39928 1.68428 1.02169
0.145309 1.65196 -0.0290053
-0.0491315 1.75335 -0.104627
3.55218 0.169245 0.447591
3.64508 0.307345 0.331098
1.37813 2.39865 1.42485
1.42127 2.40421 1.23042
2.2441 1.98368 1.80744
2.41842 1.9212 1.69723
1.46215 -0.0126066 2.01329
1.56926 -0.079262 2.16851
2.44881 0.280744 1.8512
2.337 0.186001 1.98647
0.241743 2.28036 0.241359
0.361934 2.35052 0.0388245
0.302276 2.0506 0.264458
0.241743 2.28036 0.241359
0.822558 0.680202 1.86652
0.868924 0.567142 1.70431
2.1428 3.05143 1.57907
2.25807 2.91948 1.69389
2.34562 1.83418 2.03491
2.30579 1.81007 1.8702
2.34995 2.88778 -0.0260853
2.16898 2.8271 -0.122365
2.88246 1.79661 1.93361
3.04925 1.90591 2.0622
2.74561 1.21367 1.36083
2.75316 1.17079 1.56095
0.193362 2.47087 0.0809461
0.361934 2.35052 0.0388245
1.62227 3.3615 1.8675
1.64802 3.49767 2.03081
2.82262 2.36649 1.92471
2.75853 2.36778 2.16591
0.88078 0.130273 1.95115
1.0509 0.152239 2.06936
0.222676 0.942419 1.84787
0.226095 0.93269 2.01158
2.28063 0.155117 0.749835
2.2726 0.004834 0.907543
0.145309 1.65196 -0.0290053
0.156145 1.60841 -0.226511
0.145309 1.65196 -0.0290053
0.244151 1.47811 0.116282
0.145309 1.65196 -0.0290053
0.315068 1.79076 -0.0219899
0.633027 0.0228907 2.01653
0.716036 0.132353 1.85929
0.221883 0.25708 1.44866
0.42464 0.206641 1.55479
0.575874 1.70503 0.155115
0.531177 1.70219 -0.0861572
2.38032 0.946285 1.16315
2.40227 1.07961 0.985635
0.226924 2.23344 1.50948
0.0401852 2.2472 1.38582
2.41031 2.14792 1.81006
2.48758 2.14787 1.9874
0.0558017 1.45669 1.79124
-0.0164352 1.50168 1.96497
1.55568 1.59289 1.75471
1.55453 1.43203 1.84158
2.03907 2.22492 1.94765
2.10068 2.18577 1.75614
1.44452 1.79711 0.149311
1.36605 1.85298 -0.0370822
3.00937 0.959799 1.67765
2.94232 1.14645 1.82505
2.30794 -0.072186 0.0249915
2.21433 -0.0265282 -0.100241
0.0711503 3.12491 1.92186
0.196847 3.06221 2.05466
2.53734 2.55107 1.99322
2.67393 2.477 2.01071
0.725184 3.18619 1.66059
0.579864 3.1038 1.79055
3.27697 1.49441 1.69899
3.34724 1.34644 1.83206
2.85197 2.0141 1.99425
2.93315 2.18689 1.95345
3.0111 0.754338 1.96976
3.1327 0.821377 1.85365
3.38595 1.68344 0.0837849
3.41661 1.5821 -0.0733671
1.75224 0.281096 -0.000945894
1.62983 0.385695 -0.180787
1.44728 0.384893 1.98989
1.41637 0.476552 2.14188
0.175099 2.68073 1.90185
0.260022 2.711 2.06191
1.04278 1.83788 2.06606
1.16242 1.88088 1.94888
1.04142 2.03904 2.03879
1.01803 2.17988 1.88185
0.91385 2.86825 1.70848
0.807809 2.7437 1.78986
2.66224 1.23875 1.05792
2.47208 1.27385 0.983407
1.56314 2.41438 0.169992
1.4096 2.3495 0.283676
0.952696 3.01801 1.58067
0.75545 2.97739 1.71624
0.366137 2.14588 -0.0318563
0.211757 2.26983 -0.138347
2.53734 2.55107 1.99322
2.40898 2.52872 2.13675
2.68366 2.89721 0.0362644
2.84223 2.7765 -0.084792
0.0823593 1.0488 1.26752
0.218541 0.89241 1.18861
2.87985 0.803405 0.0459805
2.84788 0.786864 -0.115726
1.98969 3.40213 1.30335
1.90625 3.3678 1.17921
0.197075 0.589624 1.21656
0.336916 0.471053 1.31976
1.14825 0.564449 1.78871
0.996013 0.638968 1.87082
3.11343 0.165092 1.90879
3.19181 0.140561 2.08096
2.37192 1.32775 2.17653
2.32485 1.32282 1.97683
0.857435 2.67197 1.98213
1.00641 2.69505 2.11797
0.59332 2.07843 1.69806
0.626839 1.93592 1.89969
2.52101 1.83762 0.0526575
2.65142 1.8034 -0.112405
2.88546 0.929666 1.87993
2.974 0.939146 2.06316
0.582048 2.22195 0.375454
0.474517 2.17334 0.155939
2.36635 1.46255 1.16705
2.53931 1.4174 1.07997
1.85058 2.34559 1.91552
1.95052 2.40069 2.07997
2.07804 0.0603292 0.630135
2.23816 0.176261 0.538023
1.02514 0.452306 1.59728
0.993588 0.375489 1.79482
0.440773 2.28627 1.37144
0.505515 2.19032 1.54254
2.73881 1.01207 0.308609
2.92295 0.889176 0.237424
3.2577 1.61052 -0.0492075
3.18701 1.75895 -0.148951
3.03652 -0.041698 0.73533
3.11611 -0.126362 0.543609
2.03266 0.328007 1.81743
2.19887 0.496289 1.74526
2.04981 1.10055 2.09411
2.05412 1.01321 1.86838
0.313925 1.28289 1.81287
0.182886 1.3288 1.69906
3.35548 1.25033 1.58113
3.23428 1.22405 1.76502
3.21536 2.87663 1.74131
3.16044 3.03068 1.86736
2.81585 1.04208 1.04629
2.98761 1.10535 1.17169
0.384406 2.94596 0.0201616
0.419156 3.01549 -0.181398
3.47222 0.62926 2.0785
3.5146 0.617824 1.86485
3.10802 0.654302 1.85784
3.01158 0.598569 1.75308
1.64394 1.02755 1.44625
1.66836 0.901312 1.58028
0.946109 0.828492 1.68878
0.922545 0.856348 1.9006
0.388322 0.0655045 1.92132
0.564373 0.00289375 1.80823
1.96535 1.83353 2.11731
2.03442 1.72376 1.98856
0.365782 2.83896 0.538512
0.466521 2.90044 0.722666
0.498461 2.1861 1.96183
0.377991 2.0809 1.82906
3.56354 2.94902 -0.0697564
3.55306 2.86196 -0.205022
2.88463 0.943756 1.25794
2.7013 0.870857 1.37774
0.11966 1.00987 0.495379
0.249693 0.883097 0.468816
2.69758 0.862166 1.153
2.81559 0.769243 1.03822
2.41982 2.45033 0.95762
2.42375 2.6458 0.864371
1.57185 0.947165 1.95539
1.78884 0.952813 2.0628
2.93682 3.43551 0.488711
2.97106 3.50032 0.265251
3.28276 3.25871 0.720053
3.11611 3.30147 0.543609
0.179822 0.76398 -0.00748995
0.0478219 0.789678 -0.14712
1.85508 3.15834 1.94595
1.96593 3.18038 2.10625
1.88307 3.33636 1.40824
1.98969 3.40213 1.30335
2.58711 1.59357 1.43858
2.66942 1.4628 1.34863
0.189984 3.04618 1.1029
0.0511012 2.98447 1.26519
0.305045 0.603149 0.0950387
0.380405 0.779765 0.211451
0.305045 0.603149 0.0950387
0.502797 0.53676 0.231158
1.98201 3.50378 1.91194
1.93798 3.48549 1.74256
1.94649 1.59695 2.06772
2.03442 1.72376 1.98856
2.79722 1.67254 2.0921
[...]
CELL_DATA 6898

SCALARS kn double 1
LOOKUP_TABLE default
9.6688e+06
9.89891e+06
1.17726e+07
1.20254e+07
9.71425e+06
9.86332e+06
1.07357e+07
9.63902e+06
8.71646e+06
8.24913e+06
9.3301e+06
9.11422e+06
8.63556e+06
9.91511e+06
1.04613e+07
8.89492e+06
8.92936e+06
8.99941e+06
8.55598e+06
1.13353e+07
9.09391e+06
9.34457e+06
7.52962e+06
9.19678e+06
1.17923e+07
1.11e+07
1.09304e+07
9.33927e+06
9.42352e+06
8.80618e+06
9.96109e+06
1.188e+07
7.60132e+06
1.09559e+07
9.17305e+06
9.45531e+06
9.23482e+06
8.8234e+06
1.09671e+07
1.05255e+07
8.30702e+06
1.03106e+07
9.1906e+06
8.2636e+06
9.68436e+06
1.16318e+07
8.35362e+06
8.24709e+06
1.19654e+07
1.07247e+07
8.39254e+06
9.70702e+06
1.02298e+07
1.19341e+07
1.07685e+07
1.00788e+07
9.02528e+06
1.10945e+07
9.10532e+06
1.18564e+07
1.00988e+07
1.04747e+07
8.88688e+06
1.05983e+07
9.59878e+06
8.84551e+06
9.92836e+06
7.61058e+06
1.1423e+07
8.66176e+06
1.02399e+07
8.55544e+06
8.50993e+06
9.99522e+06
1.14196e+07
9.00728e+06
7.12637e+06
9.83839e+06
1.00955e+07
1.04883e+07
8.32346e+06
9.76146e+06
8.51909e+06
9.37285e+06
1.18108e+07
9.44067e+06
1.10761e+07
1.11437e+07
9.88666e+06
9.12992e+06
1.02597e+07
1.11705e+07
9.56183e+06
9.60019e+06
1.04062e+07
9.68184e+06
9.3056e+06
1.17833e+07
1.14162e+07
9.23628e+06
1.0038e+07
8.15334e+06
1.02657e+07
1.13982e+07
9.88952e+06
1.00537e+07
1.00462e+07
1.19952e+07
9.98499e+06
7.74133e+06
1.04698e+07
9.45755e+06
1.18521e+07
1.04503e+07
9.83544e+06
1.13228e+07
1.1802e+07
1.07353e+07
1.08064e+07
8.8464e+06
8.83884e+06
8.77131e+06
9.44004e+06
9.79111e+06
1.18803e+07
7.76279e+06
8.8709e+06
7.46731e+06
1.02656e+07
9.69687e+06
9.28245e+06
8.69217e+06
8.83053e+06
1.16105e+07
8.6441e+06
8.84029e+06
8.25499e+06
9.88315e+06
8.45065e+06
9.73145e+06
9.64329e+06
1.16299e+07
1.05693e+07
9.17667e+06
1.11518e+07
1.03988e+07
7.87293e+06
7.37059e+06
9.98649e+06
9.06201e+06
8.83258e+06
9.38655e+06
9.74817e+06
1.2039e+07
1.02287e+07
9.73941e+06
1.20256e+07
9.56027e+06
9.44561e+06
1.01689e+07
1.01677e+07
9.70057e+06
1.11661e+07
9.09315e+06
1.07368e+07
1.18841e+07
1.17531e+07
8.41407e+06
1.05042e+07
9.93541e+06
1.05552e+07
1.03584e+07
1.02412e+07
7.31674e+06
8.75675e+06
1.00058e+07
1.04408e+07
8.52038e+06
1.05052e+07
9.57548e+06
7.70454e+06
1.11125e+07
8.82493e+06
8.95731e+06
1.03919e+07
1.16288e+07
1.12906e+07
1.18449e+07
9.36308e+06
9.40281e+06
7.79793e+06
8.49393e+06
1.07231e+07
1.05961e+07
1.19902e+07
8.30179e+06
8.197e+06
1.00736e+07
9.15616e+06
8.44056e+06
9.33269e+06
6.99333e+06
1.04241e+07
7.2088e+06
1.13929e+07
1.2153e+07
1.10643e+07
1.04756e+07
1.09488e+07
1.02073e+07
8.22004e+06
7.32979e+06
9.36366e+06
1.00577e+07
1.16479e+07
1.06337e+07
1.14311e+07
8.96441e+06
1.15778e+07
8.75697e+06
1.0382e+07
1.22118e+07
1.03025e+07
1.01628e+07
1.09503e+07
9.97284e+06
8.89944e+06
1.22746e+07
1.23102e+07
1.09723e+07
8.29423e+06
9.32582e+06
1.07263e+07
9.82094e+06
1.06227e+07
1.07428e+07
1.12403e+07
1.13275e+07
9.67583e+06
8.97677e+06
1.02723e+07
9.27969e+06
1.18575e+07
1.02256e+07
9.97448e+06
1.03495e+07
9.29625e+06
1.02547e+07
8.79846e+06
8.9761e+06
9.06178e+06
1.08089e+07
9.84736e+06
1.10688e+07
1.1405e+07
8.20157e+06
1.01688e+07
1.00143e+07
8.60642e+06
9.04153e+06
9.28094e+06
1.0759e+07
1.13892e+07
1.07857e+07
8.43904e+06
1.12928e+07
1.194e+07
1.05455e+07
9.43335e+06
1.0827e+07
1.0926e+07
8.85756e+06
1.18517e+07
1.01732e+07
1.04218e+07
9.00466e+06
9.64198e+06
9.74267e+06
1.02505e+07
8.07709e+06
1.16124e+07
1.15397e+07
9.32443e+06
8.76763e+06
9.04086e+06
1.00392e+07
1.01085e+07
1.08817e+07
9.23715e+06
9.46996e+06
8.65839e+06
1.07556e+07
1.06653e+07
9.64773e+06
7.06914e+06
7.97945e+06
1.06916e+07
1.16978e+07
9.78646e+06
9.52779e+06
1.08746e+07
1.06126e+07
1.18125e+07
1.09563e+07
9.62372e+06
1.16401e+07
9.09282e+06
1.15356e+07
9.2949e+06
8.20566e+06
1.08419e+07
1.03655e+07
1.10637e+07
8.9489e+06
7.57673e+06
1.01368e+07
1.10548e+07
8.9759e+06
8.77269e+06
1.00927e+07
8.19394e+06
1.03208e+07
1.02449e+07
1.15175e+07
9.63342e+06
1.01257e+07
1.10433e+07
9.12652e+06
9.42995e+06
8.18789e+06
1.04211e+07
9.53478e+06
1.16484e+07
1.04288e+07
1.05165e+07
1.05271e+07
1.11241e+07
1.16349e+07
9.86648e+06
8.82998e+06
1.1049e+07
8.51665e+06
8.18497e+06
9.31537e+06
9.77665e+06
8.24036e+06
9.71608e+06
1.01964e+07
1.09984e+07
1.0083e+07
9.57827e+06
1.12909e+07
8.19825e+06
1.03981e+07
8.45817e+06
8.766e+06
1.12028e+07
1.11108e+07
8.00893e+06
9.74235e+06
1.09414e+07
7.18835e+06
1.05382e+07
8.65797e+06
9.74518e+06
9.35757e+06
1.13052e+07
1.17863e+07
1.07886e+07
9.61308e+06
1.10335e+07
1.20185e+07
1.05211e+07
1.03177e+07
1.0282e+07
1.10192e+07
1.11864e+07
1.01789e+07
9.15615e+06
1.18712e+07
9.43411e+06
1.20279e+07
9.52238e+06
1.11946e+07
1.08897e+07
1.05784e+07
1.10187e+07
1.0941e+07
9.03977e+06
8.92737e+06
8.40828e+06
8.36103e+06
9.70204e+06
1.05773e+07
1.06791e+07
9.52541e+06
9.63968e+06
1.04596e+07
9.10074e+06
9.33406e+06
8.48343e+06
9.17444e+06
8.71758e+06
9.84352e+06
1.19743e+07
1.07931e+07
9.30791e+06
9.10075e+06
8.78494e+06
8.50785e+06
1.02638e+07
1.01235e+07
7.18239e+06
1.01208e+07
9.35482e+06
1.11424e+07
8.7295e+06
1.08229e+07
8.27776e+06
9.87806e+06
8.25876e+06
1.07656e+07
9.74149e+06
9.60796e+06
9.32186e+06
1.01746e+07
1.07764e+07
8.88916e+06
8.70801e+06
1.08441e+07
9.16347e+06
1.15691e+07
9.93323e+06
8.73938e+06
8.83481e+06
1.08829e+07
1.00441e+07
1.11266e+07
1.10114e+07
8.59756e+06
9.76678e+06
1.16475e+07
1.08886e+07
1.18805e+07
9.01859e+06
9.39317e+06
1.0992e+07
9.93725e+06
7.95956e+06
1.14224e+07
8.60406e+06
1.06317e+07
8.44275e+06
1.03688e+07
8.94585e+06
8.96425e+06
8.75826e+06
9.39622e+06
9.95772e+06
1.14855e+07
1.07045e+07
9.88006e+06
1.10423e+07
9.92081e+06
1.23045e+07
8.77551e+06
8.96513e+06
1.18657e+07
9.90931e+06
8.38576e+06
1.02275e+07
9.05605e+06
1.09649e+07
1.02722e+07
1.18064e+07
9.4894e+06
1.03409e+07
1.02645e+07
9.48734e+06
9.8642e+06
8.79035e+06
1.17911e+07
1.1237e+07
1.10644e+07
1.13216e+07
1.10025e+07
1.01899e+07
1.07419e+07
9.19873e+06
1.01366e+07
1.00375e+07
8.41218e+06
1.17642e+07
9.25341e+06
1.14366e+07
1.16391e+07
8.89349e+06
8.32616e+06
8.80929e+06
1.06032e+07
9.49801e+06
1.07499e+07
9.75898e+06
1.03435e+07
8.50586e+06
1.06528e+07
1.12886e+07
1.09003e+07
9.02547e+06
8.53534e+06
1.13891e+07
8.13669e+06
1.01906e+07
9.39222e+06
1.15046e+07
9.95772e+06
1.06299e+07
8.72225e+06
9.66187e+06
1.11779e+07
1.02063e+07
7.91495e+06
8.89283e+06
1.01122e+07
9.09013e+06
1.02468e+07
8.60696e+06
8.55985e+06
1.0847e+07
9.32044e+06
9.12777e+06
1.14467e+07
8.79653e+06
8.45399e+06
9.73426e+06
1.12108e+07
1.09982e+07
9.65266e+06
1.14923e+07
1.04779e+07
8.97221e+06
1.06962e+07
8.10582e+06
9.67508e+06
9.38398e+06
1.11584e+07
1.16304e+07
8.951e+06
1.18488e+07
8.65932e+06
8.51371e+06
9.09965e+06
1.13134e+07
8.13834e+06
1.04718e+07
1.0082e+07
1.00002e+07
1.17228e+07
1.17759e+07
7.4984e+06
1.18227e+07
8.75724e+06
1.11275e+07
8.90749e+06
9.96726e+06
9.32895e+06
9.83654e+06
1.0373e+07
9.30141e+06
9.42193e+06
1.20372e+07
9.03256e+06
1.02234e+07
1.17535e+07
9.04711e+06
1.22982e+07
9.93637e+06
1.04165e+07
7.57647e+06
1.11476e+07
1.14073e+07
9.94248e+06
9.71491e+06
1.02293e+07
8.46191e+06
9.63211e+06
9.55428e+06
7.70763e+06
1.05517e+07
1.1274e+07
1.05115e+07
7.76344e+06
9.58352e+06
9.8299e+06
1.00918e+07
1.03481e+07
1.1623e+07
8.49087e+06
9.13747e+06
9.51763e+06
1.11444e+07
1.09011e+07
9.97224e+06
9.2846e+06
9.55164e+06
9.89224e+06
8.7074e+06
8.31227e+06
9.49406e+06
1.03674e+07
9.34681e+06
1.04833e+07
1.19098e+07
8.15814e+06
1.15076e+07
8.88048e+06
1.1836e+07
8.97993e+06
1.07446e+07
9.29595e+06
9.90724e+06
1.01607e+07
9.3777e+06
1.01023e+07
9.10414e+06
1.03408e+07
9.52681e+06
8.4629e+06
8.87051e+06
9.59938e+06
1.01276e+07
1.00789e+07
9.03584e+06
9.92077e+06
9.90454e+06
9.45327e+06
9.26928e+06
1.21885e+07
1.0254e+07
9.63603e+06
8.70241e+06
1.10491e+07
1.14172e+07
9.54307e+06
8.16566e+06
8.91404e+06
9.35031e+06
9.85911e+06
1.06598e+07
8.72147e+06
1.12666e+07
1.09758e+07
8.81351e+06
9.73197e+06
8.13043e+06
9.75685e+06
1.13842e+07
9.04201e+06
1.06397e+07
9.68513e+06
1.15795e+07
1.1508e+07
8.53253e+06
1.1444e+07
7.28346e+06
9.94363e+06
8.7917e+06
9.10996e+06
8.39391e+06
9.95792e+06
9.20615e+06
9.07916e+06
9.11204e+06
8.24258e+06
1.16095e+07
1.12674e+07
1.1434e+07
1.13644e+07
8.52792e+06
9.15502e+06
1.11131e+07
9.62967e+06
1.05181e+07
1.21412e+07
1.01971e+07
1.08128e+07
8.50964e+06
1.08929e+07
9.14614e+06
1.21033e+07
9.64371e+06
1.00341e+07
9.34736e+06
1.1576e+07
9.56121e+06
7.24509e+06
1.12215e+07
1.11004e+07
9.87305e+06
9.95468e+06
1.08844e+07
1.10718e+07
1.12767e+07
1.06333e+07
1.12234e+07
9.66288e+06
1.08255e+07
1.09684e+07
8.25851e+06
9.08492e+06
9.90108e+06
1.08367e+07
1.12648e+07
1.13985e+07
8.5834e+06
9.65925e+06
1.23627e+07
9.3083e+06
9.4188e+06
1.13137e+07
9.62681e+06
1.1154e+07
8.11377e+06
9.43796e+06
1.19205e+07
9.48888e+06
1.09356e+07
9.24923e+06
1.08008e+07
8.85198e+06
1.00492e+07
9.04648e+06
8.79928e+06
7.62078e+06
9.13456e+06
1.10327e+07
9.90776e+06
1.06179e+07
1.11488e+07
9.92846e+06
1.04352e+07
1.06239e+07
9.47008e+06
1.1942e+07
7.8299e+06
1.09716e+07
1.08962e+07
1.23314e+07
1.18974e+07
1.07108e+07
1.1299e+07
1.04372e+07
9.92472e+06
9.25574e+06
1.014e+07
1.12174e+07
8.40186e+06
8.03903e+06
8.7667e+06
1.18858e+07
9.46579e+06
8.39863e+06
9.03028e+06
1.10374e+07
8.95256e+06
9.09728e+06
1.02827e+07
8.7191e+06
1.12889e+07
9.10936e+06
8.8547e+06
1.04633e+07
1.1169e+07
9.13091e+06
1.11357e+07
9.31414e+06
1.15748e+07
9.39427e+06
1.11768e+07
8.1882e+06
9.9922e+06
1.03972e+07
8.69335e+06
1.15057e+07
1.0509e+07
9.26441e+06
8.86428e+06
1.02031e+07
1.13615e+07
1.08846e+07
1.14416e+07
9.0613e+06
1.12124e+07
7.86363e+06
1.21166e+07
9.83456e+06
8.87162e+06
1.01591e+07
1.03822e+07
1.11332e+07
1.03002e+07
1.07047e+07
9.57092e+06
9.4162e+06
7.90542e+06
9.25254e+06
9.7058e+06
8.79051e+06
9.16135e+06
1.00065e+07
1.05762e+07
1.09119e+07
1.12635e+07
9.92719e+06
9.86778e+06
1.15483e+07
1.11334e+07
1.05227e+07
1.10263e+07
8.63651e+06
8.33795e+06
9.7806e+06
1.00958e+07
9.57127e+06
1.10248e+07
9.4608e+06
8.77527e+06
8.79974e+06
9.93746e+06
1.00099e+07
8.09204e+06
1.17687e+07
1.01119e+07
1.17277e+07
9.45142e+06
1.05627e+07
1.09308e+07
1.11789e+07
9.54453e+06
9.27853e+06
8.99209e+06
7.51982e+06
8.59843e+06
9.05479e+06
1.13848e+07
8.70581e+06
8.41865e+06
1.118e+07
9.74862e+06
1.0147e+07
8.40037e+06
1.02257e+07
1.19186e+07
1.051e+07
9.62302e+06
1.01418e+07
9.73074e+06
8.59446e+06
8.94174e+06
9.85518e+06
1.09501e+07
1.01481e+07
1.01276e+07
9.03649e+06
1.13478e+07
9.97305e+06
1.1451e+07
1.03603e+07
8.27415e+06
8.98897e+06
9.1857e+06
9.58857e+06
1.05449e+07
8.4575e+06
1.18347e+07
1.22563e+07
1.08055e+07
1.08835e+07
1.04504e+07
1.07335e+07
1.07349e+07
9.76173e+06
1.04266e+07
9.80874e+06
7.56773e+06
1.10924e+07
1.1247e+07
9.01374e+06
1.04662e+07
8.35897e+06
9.27188e+06
9.55452e+06
1.17689e+07
1.20378e+07
7.65039e+06
7.10237e+06
9.38815e+06
1.10266e+07
1.15239e+07
9.70912e+06
1.03131e+07
1.02734e+07
1.00519e+07
8.46436e+06
1.10555e+07
1.09833e+07
1.05948e+07
1.09483e+07
1.03322e+07
9.81835e+06
9.72588e+06
9.9178e+06
9.27262e+06
9.26649e+06
1.09424e+07
7.86505e+06
1.11646e+07
1.17184e+07
9.98391e+06
1.04004e+07
1.05053e+07
1.11409e+07
1.06019e+07
9.99021e+06
1.12392e+07
1.16891e+07
9.98137e+06
8.05644e+06
9.73194e+06
9.82176e+06
9.16466e+06
1.04792e+07
1.03467e+07
7.82537e+06
8.60015e+06
9.86629e+06
9.788e+06
8.72822e+06
8.22383e+06
1.02661e+07
1.05923e+07
8.83677e+06
9.1295e+06
1.02614e+07
1.08872e+07
1.16194e+07
9.51316e+06
8.75038e+06
1.10548e+07
8.9897e+06
9.33765e+06
9.4914e+06
1.00091e+07
9.67318e+06
1.01901e+07
9.08024e+06
1.09919e+07
9.48948e+06
1.11725e+07
7.92987e+06
1.18182e+07
1.13381e+07
1.06341e+07
1.00118e+07
9.57574e+06
8.77816e+06
8.80569e+06
9.42142e+06
1.03774e+07
9.0394e+06
1.03301e+07
1.0052e+07
9.12803e+06
1.19606e+07
9.99147e+06
1.12599e+07
7.69785e+06
1.18156e+07
7.85497e+06
9.72534e+06
1.13734e+07
1.00663e+07
9.82947e+06
1.01966e+07
9.44219e+06
9.51133e+06
1.13713e+07
9.25182e+06
1.121e+07
1.06922e+07
9.63512e+06
1.00676e+07
9.84939e+06
1.10942e+07
1.04258e+07
1.08529e+07
1.03409e+07
9.61944e+06
8.11724e+06
1.01668e+07
9.34908e+06
9.39418e+06
7.92799e+06
9.76311e+06
1.03599e+07
9.90274e+06
1.15071e+07
1.20673e+07
1.21974e+07
1.10891e+07
1.14882e+07
8.74505e+06
9.1094e+06
9.36904e+06
1.0026e+07
1.196e+07
8.40536e+06
1.23236e+07
7.36775e+06
1.04712e+07
9.19031e+06
7.69522e+06
8.72338e+06
9.3377e+06
1.07071e+07
1.06941e+07
9.14971e+06
7.4082e+06
1.06919e+07
9.8133e+06
9.8513e+06
7.44157e+06
1.11552e+07
1.07986e+07
7.62103e+06
8.65355e+06
1.04525e+07
1.12681e+07
1.20668e+07
1.02658e+07
7.23532e+06
1.07221e+07
1.19251e+07
7.4266e+06
9.37683e+06
9.51094e+06
8.82302e+06
1.06639e+07
9.25471e+06
1.05853e+07
8.72203e+06
8.62536e+06
1.04467e+07
1.22376e+07
9.78209e+06
8.00035e+06
1.02497e+07
9.58028e+06
9.68327e+06
1.15707e+07
8.41462e+06
1.15261e+07
6.94138e+06
8.20781e+06
8.22585e+06
8.72142e+06
1.11112e+07
8.62361e+06
1.08117e+07
1.0784e+07
1.17607e+07
7.67775e+06
9.3553e+06
1.16818e+07
1.14868e+07
9.25072e+06
8.66861e+06
9.15413e+06
1.05885e+07
9.25533e+06
1.04853e+07
8.01829e+06
1.09852e+07
1.00412e+07
1.04943e+07
1.20895e+07
9.56823e+06
9.27271e+06
1.0647e+07
1.04729e+07
8.11806e+06
1.1332e+07
8.3337e+06
1.00666e+07
1.08567e+07
9.30346e+06
8.53739e+06
1.1275e+07
1.23544e+07
1.16744e+07
9.60931e+06
1.02493e+07
1.02916e+07
1.03757e+07
1.14983e+07
8.39561e+06
1.00586e+07
9.28046e+06
9.7544e+06
1.07258e+07
9.468e+06
8.48291e+06
9.10817e+06
1.19508e+07
1.0181e+07
1.10396e+07
1.00851e+07
1.05498e+07
9.49085e+06
1.00102e+07
8.34597e+06
9.78314e+06
1.13368e+07
1.14167e+07
1.11994e+07
1.00402e+07
8.58946e+06
8.99308e+06
1.03364e+07
1.18361e+07
1.12079e+07
8.71571e+06
1.12849e+07
8.62823e+06
1.12758e+07
1.12565e+07
1.04175e+07
9.46259e+06
1.13118e+07
1.18085e+07
1.13547e+07
1.19506e+07
1.12235e+07
1.07567e+07
8.88158e+06
1.11092e+07
8.6213e+06
1.00502e+07
9.95774e+06
8.15482e+06
1.00766e+07
1.14401e+07
1.22189e+07
1.11062e+07
1.20011e+07
8.49966e+06
8.64792e+06
8.37583e+06
1.15679e+07
1.09958e+07
1.0408e+07
8.58597e+06
9.70097e+06
8.44633e+06
1.13792e+07
9.1405e+06
1.08727e+07
1.0493e+07
8.61395e+06
1.14298e+07
1.16981e+07
1.15145e+07
1.10236e+07
1.08204e+07
9.82115e+06
1.06224e+07
8.36899e+06
1.09588e+07
1.00918e+07
1.14103e+07
1.04644e+07
1.08385e+07
1.0749e+07
8.13438e+06
1.07549e+07
8.54165e+06
8.54618e+06
1.00797e+07
9.08877e+06
9.15743e+06
8.96206e+06
1.13927e+07
9.78515e+06
9.73393e+06
1.05364e+07
7.55497e+06
1.14647e+07
9.61133e+06
9.34616e+06
1.14236e+07
1.06977e+07
1.02681e+07
9.78512e+06
9.77636e+06
1.03859e+07
1.01624e+07
7.29107e+06
1.08164e+07
1.17082e+07
1.1523e+07
1.01581e+07
9.98577e+06
7.74343e+06
1.04273e+07
1.15402e+07
1.08051e+07
1.14149e+07
1.11501e+07
1.08927e+07
9.85628e+06
9.67041e+06
1.06423e+07
9.65214e+06
9.45306e+06
1.19951e+07
1.13611e+07
9.50608e+06
9.85072e+06
8.68479e+06
1.16413e+07
1.04623e+07
1.0845e+07
9.28947e+06
9.48126e+06
1.05542e+07
9.62535e+06
1.16242e+07
1.05163e+07
9.46842e+06
8.64527e+06
1.04339e+07
1.08526e+07
9.51132e+06
9.1554e+06
9.55398e+06
9.49344e+06
9.71308e+06
8.85837e+06
1.08265e+07
1.21551e+07
9.23244e+06
9.30254e+06
9.77604e+06
1.08321e+07
1.08186e+07
1.15431e+07
9.50082e+06
9.30926e+06
8.81514e+06
9.2998e+06
1.02808e+07
8.90746e+06
1.2369e+07
9.41983e+06
1.027e+07
1.03642e+07
1.10615e+07
7.92367e+06
1.18198e+07
1.14019e+07
8.39175e+06
9.19949e+06
1.12711e+07
9.54015e+06
1.05739e+07
1.20335e+07
8.76705e+06
1.10071e+07
9.22852e+06
8.35657e+06
1.05426e+07
1.08856e+07
8.56322e+06
9.69501e+06
7.55364e+06
1.18503e+07
1.15691e+07
9.98313e+06
1.04104e+07
8.04587e+06
1.00644e+07
9.77294e+06
8.23258e+06
1.08261e+07
9.74489e+06
1.07017e+07
1.21916e+07
9.3501e+06
9.88161e+06
1.16722e+07
7.3586e+06
1.00112e+07
9.8642e+06
1.22939e+07
1.19628e+07
1.10345e+07
8.88799e+06
1.11158e+07
1.22204e+07
8.08096e+06
7.74679e+06
1.12372e+07
9.74093e+06
1.17706e+07
7.96999e+06
9.95451e+06
8.98012e+06
1.15202e+07
9.27717e+06
9.83142e+06
1.09855e+07
1.1518e+07
1.07943e+07
9.35826e+06
1.18397e+07
9.38985e+06
9.95326e+06
1.20728e+07
1.11104e+07
1.09644e+07
1.14415e+07
1.20825e+07
1.09792e+07
1.04058e+07
1.07765e+07
1.15306e+07
9.02656e+06
8.90221e+06
8.73263e+06
9.85249e+06
8.59102e+06
1.06327e+07
1.1181e+07
1.15947e+07
1.20323e+07
9.50406e+06
1.09454e+07
1.16144e+07
7.87252e+06
1.06188e+07
1.20897e+07
9.19532e+06
1.13586e+07
7.84885e+06
1.01457e+07
8.34498e+06
9.06049e+06
8.99883e+06
1.17125e+07
9.63008e+06
1.04134e+07
8.50725e+06
9.75749e+06
1.03315e+07
8.50822e+06
1.16288e+07
1.04374e+07
1.11403e+07
1.08941e+07
1.20245e+07
1.13078e+07
9.25653e+06
9.04383e+06
1.05587e+07
9.59255e+06
9.96841e+06
1.0488e+07
9.636e+06
1.08562e+07
1.12639e+07
1.09751e+07
1.14319e+07
1.20737e+07
1.07686e+07
1.12964e+07
1.089e+07
8.13354e+06
1.05504e+07
8.2263e+06
1.20401e+07
9.2619e+06
8.33741e+06
8.87651e+06
1.17634e+07
1.13499e+07
1.12694e+07
1.05609e+07
1.0715e+07
9.04291e+06
7.97081e+06
9.33722e+06
1.02109e+07
1.06479e+07
1.03637e+07
9.49035e+06
7.90728e+06
7.63469e+06
1.04162e+07
1.02438e+07
1.12832e+07
8.61445e+06
1.15518e+07
9.48835e+06
9.99487e+06
7.28612e+06
8.52329e+06
1.05387e+07
8.55492e+06
8.17838e+06
9.29479e+06
1.17426e+07
8.92962e+06
9.76195e+06
9.73857e+06
9.09435e+06
1.0659e+07
8.96307e+06
8.43924e+06
1.0705e+07
1.04404e+07
9.57925e+06
7.8127e+06
1.08947e+07
7.98818e+06
1.19845e+07
1.19455e+07
1.0143e+07
9.72937e+06
1.14144e+07
1.07068e+07
9.33131e+06
1.06259e+07
1.15002e+07
1.07465e+07
9.86572e+06
9.5106e+06
1.0919e+07
9.60969e+06
1.12592e+07
1.03218e+07
1.06679e+07
1.10222e+07
7.91302e+06
1.15383e+07
9.3261e+06
9.36841e+06
1.16122e+07
9.45266e+06
9.47983e+06
1.14035e+07
1.18019e+07
1.08524e+07
1.03194e+07
1.21896e+07
9.04534e+06
9.65912e+06
1.15563e+07
9.54078e+06
9.90847e+06
1.08136e+07
9.57399e+06
1.02233e+07
1.11673e+07
9.1462e+06
8.63266e+06
1.04002e+07
9.86944e+06
1.05841e+07
1.14982e+07
9.56012e+06
8.91426e+06
1.03904e+07
1.0208e+07
1.12057e+07
9.78972e+06
1.12769e+07
9.50866e+06
1.19323e+07
1.1541e+07
9.17786e+06
1.05021e+07
1.18836e+07
9.30048e+06
9.16863e+06
1.03613e+07
1.18417e+07
1.09881e+07
1.06758e+07
9.81543e+06
9.01395e+06
9.38915e+06
8.75907e+06
9.32839e+06
8.55128e+06
1.16127e+07
9.07899e+06
1.00044e+07
1.03723e+07
1.01366e+07
1.00765e+07
9.59921e+06
1.00614e+07
7.28754e+06
8.79703e+06
8.18655e+06
8.22471e+06
8.02235e+06
1.04551e+07
1.1132e+07
9.52217e+06
1.13058e+07
8.39724e+06
9.68103e+06
7.0944e+06
9.81796e+06
1.06753e+07
8.52834e+06
1.1935e+07
1.16126e+07
9.96525e+06
8.72435e+06
1.01911e+07
1.0302e+07
1.10492e+07
1.10534e+07
1.12814e+07
1.13358e+07
8.05183e+06
9.64782e+06
9.48978e+06
1.08513e+07
9.36229e+06
1.08178e+07
8.42263e+06
1.13303e+07
1.05551e+07
9.81637e+06
1.1061e+07
9.95433e+06
9.24817e+06
1.0042e+07
9.56209e+06
9.25621e+06
1.10095e+07
1.02563e+07
9.33571e+06
1.08943e+07
1.23959e+07
1.0026e+07
8.76733e+06
9.57653e+06
8.53708e+06
8.89456e+06
9.84063e+06
1.2102e+07
1.02023e+07
1.03363e+07
9.07142e+06
1.0406e+07
1.15539e+07
1.12451e+07
9.00188e+06
1.06035e+07
9.57329e+06
8.83223e+06
8.56021e+06
9.11601e+06
8.19635e+06
1.13611e+07
1.04082e+07
8.8425e+06
1.14354e+07
8.5195e+06
1.15965e+07
9.99373e+06
1.14375e+07
8.9884e+06
8.99069e+06
1.08862e+07
8.7416e+06
9.14841e+06
9.64462e+06
9.01894e+06
9.77254e+06
1.17184e+07
9.77146e+06
9.83263e+06
1.17082e+07
7.64862e+06
1.0361e+07
1.22034e+07
9.82656e+06
1.12392e+07
9.73911e+06
1.04928e+07
1.1988e+07
9.89727e+06
9.49638e+06
1.11094e+07
1.0502e+07
9.65973e+06
1.03877e+07
7.78074e+06
1.06183e+07
8.75949e+06
1.05794e+07
1.04999e+07
1.13095e+07
1.1287e+07
9.14833e+06
1.06241e+07
8.75498e+06
6.76775e+06
1.14173e+07
8.42111e+06
9.63092e+06
9.86091e+06
1.17849e+07
1.06302e+07
1.21467e+07
1.07684e+07
9.76071e+06
9.47407e+06
9.30471e+06
8.85843e+06
1.18402e+07
9.03709e+06
8.81809e+06
1.02026e+07
9.02135e+06
1.16088e+07
1.12877e+07
1.02999e+07
9.69259e+06
1.07289e+07
1.11487e+07
9.34178e+06
1.01864e+07
8.9687e+06
1.08584e+07
1.04829e+07
1.0956e+07
8.79063e+06
1.0456e+07
8.51932e+06
1.18912e+07
8.09471e+06
9.60367e+06
9.32193e+06
1.04238e+07
1.03176e+07
9.44175e+06
8.95429e+06
9.54459e+06
1.10019e+07
1.08439e+07
1.03951e+07
8.48205e+06
9.79151e+06
1.11092e+07
1.04723e+07
8.38904e+06
1.17291e+07
1.07144e+07
8.87761e+06
1.06772e+07