# vtk DataFile Version 3.0.
comment
ASCII

DATASET POLYDATA
POINTS 59640 double
2.39021 0.92113 1.48552
3.24789 2.72679 -0.00638647
3.39492 1.75158 0.0199123
1.66503 0.180194 2.15288
1.72437 0.411311 1.13847
3.36416 0.321636 1.85993
1.60521 2.53001 1.99279
1.18529 2.04508 1.83604
2.24049 2.785 0.370716
0.0158207 2.14057 1.23197
1.39637 2.87429 2.06699
2.37578 0.678123 2.12745
0.0532178 2.6823 0.641488
1.76927 0.926976 1.73958
3.36888 2.42472 0.361609
1.44838 2.30288 1.44575
3.51893 0.564854 1.9351
1.2791 2.59055 -0.0281497
0.0294496 0.555591 0.647476
2.50471 1.81706 -0.0285923
2.22606 0.828974 2.03792
1.11357 2.05712 1.81635
3.09718 1.33691 2.12303
0.811023 3.26515 1.72888
3.15319 2.39176 -0.0292399
2.43961 0.909807 1.95635
1.30946 0.160522 2.07137
0.120159 1.91119 0.541018
-0.0377134 2.82902 -0.0260175
1.95392 1.98403 -0.0609726
1.25947 0.733525 1.85302
2.30954 1.559 1.83178
2.78895 2.66785 0.912625
0.161093 0.859277 -0.00723154
1.6877 2.86473 -7.0559e-05
0.311981 0.972674 2.0027
0.309967 0.965235 2.10775
2.96528 0.684914 1.73203
0.123303 2.37635 1.01054
2.79215 1.78122 1.22673
0.54389 0.60859 1.80693
0.0666225 0.0610621 0.564884
0.018462 0.981635 1.65954
1.63908 2.50068 1.10887
3.29774 0.788646 2.0772
2.88367 3.32483 2.08909
3.34227 2.13479 -0.0167039
1.92525 0.542442 1.45417
3.26128 3.46902 1.58657
3.08636 -0.0117748 2.02354
3.15884 0.401176 0.679641
2.57591 0.951182 2.14984
3.23824 1.08694 0.0281704
0.427792 1.27848 0.00113336
1.46111 1.35269 1.95008
3.44533 0.283713 1.72543
2.28695 0.736833 2.05937
1.42176 1.31778 2.0707
3.01683 0.513296 2.05285
0.982768 3.43321 1.91489
3.33502 1.70297 0.234322
3.21696 2.36626 -0.0229295
2.15603 0.459928 1.72275
2.08559 2.73551 1.9818
2.63528 0.594123 0.0719257
2.98132 1.43466 2.16176
0.876879 2.98014 2.09422
0.0594886 2.49238 0.313206
0.0395407 1.41778 0.59581
3.45871 0.459852 -0.0439758
1.68865 2.58873 1.93233
3.26388 2.81898 -0.0620103
0.40633 2.96805 -0.0241374
0.0948054 0.637119 1.97648
3.27807 0.322509 1.91971
0.168251 0.648563 2.07606
1.71558 1.71272 2.01797
0.375855 0.5568 2.09606
2.56399 1.98687 -0.0763172
2.1264 0.718425 0.0959012
0.0998556 1.43673 1.01908
0.41555 1.46224 0.0040086
0.115101 0.608785 1.2449
2.80362 0.739023 1.93381
2.46188 2.88944 1.81635
0.0757958 2.6336 1.34833
2.31631 2.77048 2.09045
2.72552 3.24351 1.04578
2.31096 0.344295 0.00295851
2.55997 0.587373 0.141139
2.60992 1.34755 0.0964767
1.79103 0.904357 1.9019
2.51185 0.851827 0.00192892
0.0958529 3.44352 1.36188
2.3503 3.11837 2.02349
2.55078 1.14358 2.01637
2.57085 2.18129 2.05203
1.74212 0.0553531 1.16837
0.130652 0.718555 1.23472
3.10333 3.23595 1.90467
0.979897 1.98943 1.99197
3.13141 1.43595 1.48005
1.62593 2.84382 2.11662
0.625203 0.389362 2.03768
0.0854859 3.11224 0.365358
1.29408 2.1504 2.06169
1.94512 1.90091 1.73209
1.33089 0.594894 2.09695
2.0396 1.82226 1.04129
0.120269 0.478384 0.935445
0.0611877 -0.01297 0.281537
2.39464 0.664022 1.93138
1.27587 2.85713 2.02567
2.39225 0.609626 1.98524
0.588949 2.75866 2.1093
0.744946 2.27179 -0.00116449
0.728814 0.0538061 -0.0169225
2.61776 1.00781 1.47118
1.31448 2.98953 2.01444
0.989835 2.17693 1.97366
0.74908 1.22519 2.0336
0.0906562 1.21177 0.880247
2.17911 1.89329 1.92781
1.40372 1.59199 -0.00304586
1.94512 0.987499 2.09561
1.72261 2.01358 1.99849
1.85453 2.85357 0.0104896
2.81411 0.737953 1.86692
0.0809892 0.0666267 2.07215
3.24805 2.09494 1.68408
0.0628688 2.95003 2.02672
2.02962 1.13175 1.83296
0.150712 0.794587 1.94562
2.85158 2.27096 2.07083
0.550504 1.84791 -0.037925
1.95407 1.01457 0.252947
3.28083 3.39704 2.10623
-0.0273487 1.95691 2.05759
2.53564 2.78546 2.07862
1.70439 0.536625 1.34435
3.1054 2.85665 -0.050083
0.050757 2.37122 0.0233183
2.24885 3.40506 1.67078
0.0827676 3.2011 1.49987
0.273663 2.79902 2.04581
1.31277 3.09161 1.97866
3.24977 3.25201 2.04676
2.13199 0.523142 0.830603
3.18046 2.68526 1.87258
1.77787 1.99697 2.04774
0.17197 1.81794 2.16743
3.16362 2.80028 2.06545
2.63743 2.66015 1.74963
2.75496 3.27923 0.105357
0.147839 2.61124 0.991499
2.80218 1.25379 2.11147
0.102337 2.35394 1.25966
0.136535 2.42988 1.23761
2.09573 0.687558 0.399867
1.84241 2.42369 2.06879
1.56418 1.38148 1.96009
0.361284 3.32864 1.91727
1.82464 0.701846 -0.0242951
3.1809 1.27412 2.09522
2.8948 0.634564 -0.000930946
1.47798 3.15883 2.06273
0.0704594 0.354507 1.1369
0.4521 0.703893 1.929
3.26049 0.41151 2.03563
0.0187967 0.340734 0.465532
0.505299 1.60086 2.0334
1.83436 2.61444 2.04324
0.0467791 2.87413 1.3739
1.85413 3.51017 2.06492
1.39767 0.0658055 0.023853
2.33533 1.24539 -0.00202308
2.30275 2.11996 2.0382
0.112553 1.91861 2.06845
0.0564576 1.14059 1.43103
0.212575 0.383151 2.07503
2.52108 0.930037 1.56119
0.0299373 0.472642 2.06863
0.0835721 2.66873 1.80483
2.59525 3.13312 1.00932
3.03097 2.25666 1.93891
0.118819 -0.0626022 0.273149
2.58947 1.42355 2.13311
1.05577 1.51221 2.05301
3.21122 0.169129 2.11146
1.60498 0.540644 1.96788
0.0831108 3.14639 0.591925
1.08306 2.55896 -0.0423816
2.58998 2.70162 -0.0319257
3.40026 0.686144 2.04707
-0.028483 2.85582 0.336891
1.59474 2.85727 1.38473
0.0670266 3.20365 -0.0423211
2.46598 0.799921 1.99297
0.52172 2.06076 2.0569
3.24695 0.146232 2.05254
2.87246 0.899204 0.000201871
3.17644 2.67564 0.121594
0.687514 2.94941 2.05874
1.52002 0.99861 2.05699
0.915689 2.64223 2.07919
0.110746 1.87192 0.0539266
2.80216 1.20149 2.15742
0.1122 3.36565 1.77554
0.978238 0.0688639 2.0512
0.228041 0.444194 2.0811
2.08878 0.924638 2.06641
0.0712675 2.25782 0.298828
0.350594 0.0259458 1.85359
0.552607 0.329831 2.10275
1.63951 2.21125 -0.0374759
0.317325 1.37938 2.06593
0.102226 3.06353 1.20721
2.63727 0.856384 1.9946
0.104737 3.29732 1.77495
3.01843 3.06022 1.89911
0.786132 3.23283 1.91862
0.692369 1.55628 -0.0518967
2.67022 3.04275 1.62887
0.839061 1.08158 -0.0453908
2.49953 0.677527 0.023485
1.63699 2.20034 1.86128
3.34186 2.82837 0.506422
0.313509 2.86549 -0.048634
0.113806 1.12602 -0.01873
0.546749 2.06149 2.1172
1.21571 1.74452 1.72171
1.69582 2.70395 -0.0107726
0.517353 0.270133 1.71736
2.78789 -0.0405496 0.128036
2.84109 2.56747 0.188458
2.72024 1.38364 2.04368
2.02872 2.8711 1.15943
2.98999 2.21228 -0.0368637
1.90163 2.8026 1.4334
3.04156 3.15538 1.76515
2.51115 0.535964 1.99045
0.0352865 0.0601435 2.07471
0.116909 2.41696 0.718982
0.666028 1.08751 1.95995
1.08585 0.971999 2.00795
0.147029 0.875317 0.968181
0.148112 0.92706 0.989152
0.154082 3.04009 1.72713
3.25154 3.25691 0.789772
0.157214 2.96103 1.78153
1.85087 2.90538 0.697034
2.78146 0.14011 2.0615
1.95805 0.245799 1.92448
0.171829 1.83277 0.476752
0.430461 1.50817 1.83499
0.673199 1.0645 2.0367
2.66575 2.26408 1.91085
0.0422573 0.74561 0.141157
3.12825 3.11167 2.0601
2.25922 1.75706 0.205016
3.00527 3.28286 1.95488
2.13449 0.131015 2.06662
0.147457 2.81325 1.04088
3.34529 2.25045 2.00866
0.960962 2.15639 1.90155
0.790249 0.304216 1.80771
0.0815675 2.20661 0.421511
1.8377 2.96985 -0.0100085
2.90516 3.22421 -0.0306622
3.4225 1.00546 0.870123
2.98629 2.92643 0.115573
1.46225 0.869742 2.09399
1.94116 0.688438 -0.0075116
2.17454 2.82376 2.08774
0.511016 2.49608 1.96975
1.74879 0.303956 -0.0348438
3.19747 0.893789 1.91819
1.83315 2.20958 2.06655
2.78032 2.58564 1.90457
1.00559 0.928132 1.86489
0.465804 1.42905 1.44792
2.75075 0.816431 2.13554
0.252411 0.439397 2.0271
0.157484 2.14598 2.02907
1.91468 2.29405 1.89647
3.16285 1.5658 0.974143
0.100854 1.02148 1.8969
2.44304 1.62305 2.06602
2.86103 1.16413 1.94885
3.25402 2.11754 1.75979
2.95213 2.01059 1.98713
1.20678 1.21367 -0.0124542
2.71217 2.95313 0.297023
2.85685 2.39356 1.9655
1.38556 3.23646 -0.0313816
0.152773 0.52589 0.841148
3.27664 1.91035 2.08456
1.39638 1.35501 2.08931
0.298871 2.99637 1.98018
1.98892 3.47236 0.453701
2.45266 1.78267 1.99481
1.6473 0.552432 2.07169
3.19992 0.784305 1.32566
0.443449 2.42076 2.09876
0.430032 1.03781 -0.0431086
1.46336 3.53891 2.12458
0.170094 0.902222 1.67959
0.0840706 1.52473 1.17699
2.5015 2.56383 0.133105
2.30773 2.83589 0.658821
3.15339 0.895379 -0.0124893
1.2375 3.27927 1.99146
2.13438 3.34448 1.41174
0.162436 0.981672 1.26199
1.51403 3.36019 1.95967
2.84453 2.50255 0.193706
2.46048 0.148218 1.21352
2.63249 1.87643 2.06418
2.24321 3.066 0.978796
2.88867 3.13812 0.00584064
3.1297 2.03414 0.0371706
2.33393 1.78933 0.887292
1.82699 0.894228 0.0294902
2.46127 2.65511 -0.0340432
1.86105 1.09281 1.93546
3.1774 2.57953 0.133184
2.67818 0.284281 1.91308
2.97764 0.603714 1.79859
0.142304 1.12008 1.22378
1.91814 1.88621 2.00464
1.94673 0.325245 2.0546
0.108279 2.74831 0.464014
2.26927 2.50654 2.08049
1.22774 0.144203 0.0161787
0.123786 0.193754 0.898528
0.0720609 0.2397 0.80797
1.38848 2.87294 1.95907
0.259983 0.204309 2.10808
1.8296 2.63701 2.09223
3.31895 0.2317 0.692415
0.211635 0.702034 2.07
2.99851 0.320737 1.38229
0.0488819 1.66711 2.02864
0.199455 1.95592 2.01972
0.169582 3.28098 1.26254
0.169598 3.33998 1.27468
2.30172 1.2784 1.89756
0.170905 3.27928 1.31807
1.1316 0.156222 2.09624
0.467845 2.90289 -0.0112654
3.04717 3.30837 -0.00791547
3.27814 0.588715 0.0132421
2.87499 2.4886 0.28962
0.152054 0.174016 0.522225
0.13291 0.212991 0.607426
0.0275176 2.3172 -0.0283941
3.47383 2.5905 -0.0181288
2.93837 0.824362 2.13614
2.14462 1.80474 1.77417
3.33765 2.9493 0.914934
2.26854 0.433369 0.310379
1.67763 2.1529 -0.0562028
3.25521 2.34586 2.09308
1.59616 1.43187 1.93853
2.97869 1.71895 2.11759
1.24861 2.66664 -0.00707451
0.117708 3.16063 1.91496
0.750611 0.247479 2.02615
0.909317 2.5594 2.07945
0.0605943 1.59356 2.14505
3.39312 2.81354 2.07559
2.78464 2.65854 1.73461
0.0907464 2.36307 0.727392
2.92741 1.08324 2.0488
2.01303 2.25462 2.06547
1.24571 2.33645 2.05723
2.62878 1.13999 2.09865
1.91548 1.53592 1.92711
2.00925 1.49556 1.69
0.107304 3.05721 1.82558
2.80813 2.79219 0.560038
1.47235 1.87055 2.04637
2.4142 2.58127 2.05052
1.17241 1.63729 1.90412
0.0851997 0.799469 1.74831
1.98909 3.28703 2.08615
0.0444237 0.370397 2.04179
0.161898 1.48057 1.75186
2.08231 0.436517 0.177094
3.21051 3.25109 2.07467
1.15585 3.07794 2.06551
2.47523 2.59985 1.59303
3.36485 0.326752 -0.0443383
[...]
POINT_DATA 59640

VECTORS nn double
0.903888 0.064383 -0.422896
0.0471847 -0.59639 -0.801307
-0.492539 -0.133466 -0.859996
0.713547 0.600194 0.36141
0.630063 -0.67629 -0.381645
-0.0659998 0.518587 -0.852474
-0.238061 0.458727 0.856093
-0.518697 -0.114325 -0.84728
-0.063447 0.782227 0.619755
-0.391726 -0.709104 0.586279
-0.345467 0.406244 -0.845942
-0.124768 0.460182 0.879014
-0.841549 0.491335 -0.224467
0.890828 0.242551 0.38418
-0.156715 -0.902161 0.401928
0.224927 -0.198464 -0.95395
0.381809 -0.480754 0.789365
-0.0355782 -0.590815 -0.806022
-0.423894 0.905644 0.011106
0.672768 -0.443697 -0.592044
-0.447624 0.648952 0.615219
0.808642 -0.336971 -0.482233
0.786001 -0.478086 0.391965
-0.390444 0.356172 -0.848938
-0.479906 0.114243 -0.86985
0.131754 0.252556 -0.95857
-0.204071 0.444547 -0.8722
-0.277307 -0.882626 0.379568
0.78907 0.296714 -0.537894
0.616646 -0.370435 -0.694641
-0.42276 -0.729808 0.537265
0.685507 -0.696389 0.21242
0.870568 -0.0609673 -0.488257
0.527597 0.500952 -0.686067
-0.307757 -0.79587 -0.521418
-0.410762 0.201033 -0.889303
-0.444503 0.074719 0.892656
0.219069 0.93721 0.27138
0.679324 -0.46242 -0.569813
-0.350046 -0.558921 -0.751715
0.325441 -0.560533 0.761506
-0.587294 0.71716 -0.37519
0.792954 0.456398 -0.403639
-0.234004 -0.518984 0.82213
-0.43632 -0.34498 0.831031
0.185143 0.586956 -0.788166
0.615421 -0.606724 -0.503133
0.297249 -0.599792 0.742894
-0.0357218 0.988902 -0.144208
0.198542 0.374113 -0.905881
-0.839707 -0.246473 -0.483884
0.0706048 -0.795042 0.60243
-0.0209765 0.837856 -0.545489
-0.330686 -0.39867 -0.8554
0.703839 -0.426536 0.568047
-0.218381 -0.262938 0.939773
0.356719 0.709685 0.607534
0.289994 -0.689438 0.663761
0.398249 0.235225 0.886604
-0.172524 0.481451 -0.859326
-0.212611 0.72411 0.656095
0.573217 -0.306338 -0.759986
-0.262912 0.219785 -0.939453
0.543923 -0.284726 0.789354
-0.777885 -0.31531 -0.543575
-0.196357 -0.446624 0.872909
-0.0647326 -0.358415 -0.931316
0.729897 -0.510488 0.45459
-0.747195 0.491368 -0.447501
0.609569 0.154028 -0.777625
0.3168 -0.519791 -0.793382
0.523098 -0.607912 -0.597338
0.41682 0.427467 -0.802205
-0.477828 0.12376 -0.869692
0.587852 -0.265882 0.764026
0.666491 0.302602 0.681338
-0.725131 -0.43799 -0.531366
0.686114 -0.310831 0.657748
-0.369027 0.286909 -0.884026
0.03997 -0.891155 -0.451936
0.563468 -0.73545 -0.37632
0.525625 0.405134 -0.748054
0.50393 0.376921 0.777164
-0.0176723 -0.833601 0.552084
0.530339 -0.370305 0.762637
0.811611 -0.525557 -0.255104
-0.558542 0.636128 0.532326
-0.815642 -0.394989 -0.422744
0.446299 0.564552 -0.694333
-0.624322 -0.713049 0.319036
0.885544 -0.365078 0.28728
-0.120356 0.197808 -0.972824
0.162938 0.863538 -0.477234
0.733054 -0.677847 0.0561671
0.516572 0.633988 -0.575511
0.82059 0.306304 0.482504
-0.252774 0.209649 0.944538
0.889196 -0.449127 0.0872717
-0.762892 0.574283 0.296976
0.83028 0.268736 0.488278
0.456219 -0.0976257 -0.884496
-0.305446 -0.312189 -0.899578
-0.650327 0.468257 0.598172
0.590287 -0.407435 0.69682
0.838921 0.533655 0.106877
0.320986 -0.910612 0.260295
-0.859898 0.487911 -0.150061
-0.806144 -0.458693 0.373809
0.210703 0.831793 0.513541
0.601875 0.635414 0.483732
0.113421 -0.783578 -0.610853
0.547286 0.174277 -0.8186
-0.59199 0.722448 0.357235
0.500016 -0.844219 0.193076
0.586953 0.519232 0.621196
0.557381 -0.411834 -0.720916
0.719679 0.361735 -0.59263
-0.601631 -0.515579 -0.610098
0.271993 0.1333 0.953022
-0.628536 -0.183956 -0.755713
0.311181 -0.60252 0.734939
-0.0457209 -0.564966 0.823846
-0.900521 -0.0811129 -0.42718
-0.233427 -0.263567 -0.935972
0.242705 0.209162 0.947283
-0.127517 0.302318 -0.944639
-0.476438 -0.182371 -0.860086
0.147619 -0.853018 -0.500569
-0.58486 0.510736 0.630149
0.194018 0.283344 0.939187
-0.763322 0.59686 -0.247179
0.507073 -0.552907 -0.661189
0.728229 0.198243 0.656035
-0.107813 -0.295398 0.949271
0.184882 -0.31347 -0.931426
0.0806181 -0.873578 -0.47996
-0.137436 0.737459 0.661261
-0.645567 -0.138866 0.750972
0.725179 -0.478909 0.494733
-0.806619 -0.183173 0.561973
-0.583719 -0.701682 -0.408551
0.601555 0.670397 0.434397
-0.894804 0.355729 -0.269783
0.908065 0.0431255 -0.416602
-0.570528 0.201993 0.79605
-0.362344 0.311725 -0.87837
0.734246 -0.587808 0.339654
-0.369808 -0.172396 -0.912974
-0.517066 0.719514 0.463618
0.997825 -0.0350832 0.0558007
0.371686 0.563096 0.738087
-0.0609566 -0.274373 0.959689
-0.233245 0.373825 -0.897693
-0.661895 0.0889319 -0.744302
-0.502622 -0.683909 -0.528809
-0.584929 -0.670535 0.456334
-0.257844 0.795611 -0.548197
-0.843931 -0.509341 -0.168383
0.198898 0.602505 0.772934
0.350667 0.49685 -0.793834
-0.213404 0.367778 -0.905095
-0.190417 0.412711 0.890736
-0.878664 0.051575 -0.474646
-0.58369 0.268662 -0.766242
-0.105751 0.177248 -0.978468
0.831599 0.240565 0.500571
-0.432037 -0.67997 0.59244
-0.00283577 -0.140142 -0.990127
-0.11826 -0.262552 -0.957644
0.388306 -0.815372 0.429404
0.162758 -0.952299 0.258142
0.4959 0.131169 -0.858416
-0.892005 0.143233 -0.428731
0.256243 0.792661 0.553197
0.00817141 0.892923 -0.450136
0.566022 -0.42122 -0.708655
-0.408052 0.455511 0.791204
0.324906 -0.43428 0.840141
0.11374 -0.607647 -0.786021
-0.421794 0.601997 0.678004
0.377067 -0.410227 -0.830382
0.582057 0.141141 0.800805
-0.752325 0.557724 0.350644
0.965123 0.0963842 0.243408
0.0890945 -0.757347 -0.646907
-0.881919 0.0741218 -0.465538
0.522919 0.431545 0.735068
-0.00888129 -0.719383 0.694557
-0.565035 -0.235125 0.790855
0.028321 0.176681 -0.983861
0.914616 -0.188216 0.357843
0.0378058 0.655057 -0.754633
0.148122 -0.866465 -0.476758
0.560128 0.467377 0.68397
0.469932 0.487892 0.735612
0.746735 -0.147361 -0.648592
-0.404055 -0.276519 -0.871938
-0.518545 -0.319771 -0.793006
0.37375 0.0546401 -0.925919
-0.268273 0.767124 0.582709
0.00661335 0.105857 -0.994359
-0.564392 -0.788812 -0.243388
0.425907 0.269801 -0.863603
-0.0586455 0.744611 -0.664918
-0.392064 0.629537 0.670797
0.357451 0.380183 -0.853047
0.583309 -0.539825 0.60691
-0.743791 -0.664407 -0.0730652
0.11441 -0.0967656 -0.98871
-0.687209 -0.445386 0.573912
0.417489 -0.471781 0.776612
0.168022 -0.635741 0.753394
-0.500093 0.144731 0.853792
0.315836 -0.498756 0.807149
0.477039 -0.101565 -0.872994
-0.321179 0.100726 0.941647
0.943253 0.321505 -0.0831119
0.0737419 0.168076 -0.983012
-0.580216 0.81225 -0.0600002
-0.640131 -0.156074 -0.752245
0.12319 0.421225 0.898551
0.135663 0.604116 -0.785264
-0.551147 -0.743991 -0.377776
0.0645465 -0.769024 -0.635952
-0.960948 0.276725 -0.00149757
0.624036 0.408232 0.666278
-0.644622 0.152146 -0.749209
-0.604281 0.470771 -0.64282
-0.322724 0.612684 -0.721434
0.918461 0.0703865 0.389197
-0.362176 -0.119984 0.924355
-0.683541 -0.531202 -0.500596
-0.487078 0.278037 0.827919
0.0650954 -0.673494 -0.736321
-0.547288 -0.649768 -0.527519
0.788289 0.0509769 -0.61319
0.270876 0.514501 -0.813581
-0.432442 0.387307 -0.81424
-0.489926 0.322357 -0.809975
0.363192 -0.5887 -0.722166
0.616117 0.386936 -0.686061
0.485013 0.662841 0.570443
0.817989 0.302192 0.489462
0.753976 -0.33165 0.567035
-0.456569 0.265661 0.849099
-0.838504 0.54234 0.0527113
-0.857635 -0.396378 -0.327638
0.56917 0.747198 -0.343133
-0.63476 -0.686721 -0.354251
-0.621121 0.55515 -0.553188
-0.392219 0.334034 -0.85708
0.914733 0.234883 0.328775
-0.391576 0.0710545 0.917398
0.745414 0.665489 0.038508
0.127466 -0.623521 -0.771346
-0.627117 -0.0710543 0.775678
-0.129842 0.23922 -0.962245
0.24983 -0.234147 -0.939553
0.366925 0.863783 -0.34532
0.694537 0.592805 -0.407676
-0.879492 0.185748 -0.438169
0.321601 -0.837143 0.442452
-0.947865 -0.239339 0.210401
0.284201 -0.95557 -0.0781983
0.0533503 0.302649 0.951608
0.337182 0.518638 0.785699
-0.779843 0.530032 0.333033
0.0797046 0.555576 -0.827637
-0.431964 0.732312 -0.526427
0.344673 0.769158 0.538142
0.775773 -0.630647 -0.0214702
-0.176993 -0.712663 0.678811
-0.114038 0.236688 -0.96487
-0.119731 -0.326608 0.937546
0.244853 0.321637 -0.914657
-0.0337503 -0.0860384 -0.99572
-0.0916027 -0.0714882 0.993226
-0.900044 0.279061 0.334731
0.225375 -0.222579 -0.948507
0.580279 0.298841 -0.757608
0.354048 -0.298245 0.886397
0.521397 -0.00892272 0.853268
-0.0591658 -0.570044 -0.819481
0.476895 0.543669 -0.690648
0.127994 -0.218265 0.96746
0.650838 0.590759 -0.476878
0.695153 0.312617 -0.647327
0.0056024 -0.436359 0.899755
-0.673883 -0.298446 -0.675879
0.0442784 -0.28287 -0.958136
-0.267491 0.288338 0.919407
0.263775 0.110685 -0.958213
-0.655058 0.334513 -0.677495
0.189584 -0.507077 -0.840792
-0.158236 -0.309047 -0.937791
-0.434605 0.661157 -0.611547
-0.0519522 -0.719641 0.6924
-0.149598 -0.045106 0.987718
0.902304 0.03701 -0.429508
-0.731128 0.448242 -0.514325
0.345304 -0.6465 -0.680296
-0.685077 -0.35855 -0.634122
-0.414375 0.887812 -0.20021
0.1217 -0.708163 0.695481
-0.14303 0.188673 -0.971568
0.145379 0.447469 0.882404
-0.0851878 -0.362162 0.928214
-0.24424 0.846433 0.473178
-0.0761067 0.751832 -0.654947
-0.687169 0.533543 0.493083
-0.289406 -0.71977 -0.631012
0.32114 -0.173169 -0.931065
0.494878 0.709733 -0.501373
0.709479 -0.621441 0.332341
0.0687881 0.381923 -0.92163
-0.608735 0.494015 -0.620799
0.772468 -0.633796 -0.0399481
-0.13775 -0.298563 0.944397
-0.619896 -0.780498 0.0809445
-0.705063 -0.704222 0.0834043
0.91045 0.404287 -0.0873654
-0.530271 -0.0156136 0.847685
-0.676841 -0.204598 -0.707125
0.82323 0.162508 -0.543951
-0.820472 -0.240502 -0.518637
-0.579244 0.697059 -0.422594
0.584809 0.432269 -0.686398
-0.481995 0.790834 0.377177
-0.547066 0.304292 0.779824
-0.346353 -0.0277275 0.937694
0.342052 -0.578212 0.740724
-0.717099 0.0738809 -0.693044
0.536033 -0.601834 0.592001
0.158826 0.153538 -0.975295
-0.635623 0.396737 -0.662255
0.24938 -0.389226 0.886743
-0.220604 0.429404 0.875755
-0.101412 -0.0535929 0.9934
0.360127 0.7688 0.528445
0.131788 -0.991225 0.0102144
-0.0809602 -0.616725 0.783005
-0.87916 0.0491346 -0.473987
0.514256 0.445714 0.732721
0.278572 0.0847089 0.956672
0.796687 -0.386509 -0.464651
-0.798556 -0.534961 0.275906
-0.319664 0.862725 0.391818
-0.817386 0.413023 -0.401613
0.265471 -0.43286 -0.861485
-0.546993 -0.772394 -0.322811
0.230027 0.880081 -0.415386
0.554136 -0.392829 -0.733907
-0.107483 0.264478 0.958383
-0.649189 -0.128245 0.749738
-0.352542 -0.73667 -0.577089
0.0486251 -0.610498 -0.790523
0.571394 0.0805238 -0.816716
0.760001 0.474154 0.444496
0.333114 -0.586757 -0.738072
0.653366 0.358361 0.666852
-0.707828 0.322451 -0.628495
-0.114005 0.804064 -0.58351
0.424633 -0.225977 0.87671
-0.71155 -0.422062 -0.561748
-0.261526 0.00351287 0.96519
-0.553355 0.70492 -0.443719
-0.358321 -0.40835 0.839557
0.218009 0.523131 -0.823897
-0.380611 0.408262 0.829733
-0.198801 0.835945 0.511541
0.567769 0.126711 0.813378
-0.250075 0.284036 -0.925627
-0.336677 0.687649 -0.643264
-0.22862 0.341076 -0.911811
-0.559765 -0.329291 -0.760414
0.399978 0.587827 0.703191
-0.544966 0.597109 0.58862
-0.290797 -0.463274 0.837146
-0.407235 -0.910461 -0.0722481
0.996215 0.0815646 0.0300522
-0.878959 -0.454961 0.142971
0.0571865 0.589886 0.805459
-0.783569 -0.275398 0.556934
0.591195 0.446711 -0.671519
-0.944164 0.0945295 -0.315624
-0.394868 -0.376093 0.838232
-0.28934 0.62483 0.725169
-0.347643 0.187497 -0.918689
-0.722756 0.384307 0.574397
-0.0961367 0.602235 -0.792509
0.135747 0.631108 0.763725
-0.788184 -0.0469593 0.613645
0.113026 -0.5057 -0.855273
-0.490596 -0.397197 -0.775597
-0.97699 -0.197398 -0.0807732
-0.400177 0.185737 0.897419
-0.613021 0.2702 -0.742427
-0.0922051 0.326318 0.940752
-0.31019 -0.43119 0.847264
0.183526 0.00870505 -0.982976
-0.739605 0.646714 -0.186403
-0.359055 -0.00715921 0.933289
-0.422512 -0.905676 0.0351443
0.325823 0.333782 -0.88455
-0.0417076 0.797753 0.60154
0.894527 -0.107684 -0.43385
-0.470592 0.10286 -0.876335
0.241523 0.70647 -0.665257
0.274697 0.417403 -0.866208
-0.749587 0.294419 -0.592822
0.536304 0.181176 0.82435
-0.226147 -0.260898 -0.938504
-0.614957 -0.187198 -0.766018
0.434782 -0.388758 -0.8123
0.220839 -0.774451 0.592837
0.809383 0.0502241 0.585129
0.298433 -0.770028 -0.56391
-0.208118 -0.075614 0.975177
0.108974 -0.742034 0.661446
0.637372 0.387577 -0.665989
-0.251087 0.221628 0.942251
-0.525009 -0.1863 -0.830456
0.674616 0.483839 0.557488
0.566483 0.494048 0.659555
0.0270465 -0.443955 -0.895641
-0.133178 0.665743 0.7342
0.711035 -0.194132 -0.675827
0.705359 -0.599467 0.378297
-0.262031 0.859198 0.439452
-0.673561 0.739085 -0.00835335
0.205644 -0.0269198 -0.978257
-0.177193 -0.100524 -0.979029
0.797339 0.383243 -0.466235
0.424665 -0.890697 0.16223
0.443358 -0.659263 0.607293
0.390799 -0.831016 -0.39584
0.71162 -0.296201 -0.637072
-0.207118 -0.408902 -0.888764
-0.0832349 0.921959 0.378238
-0.94377 0.0532412 0.326288
-0.57545 0.664816 -0.476315
0.611105 -0.472655 0.63494
0.362062 0.70945 -0.604642
-0.661989 -0.389061 -0.640626
0.542786 -0.640045 0.543806
0.970731 0.224057 -0.0864886
0.587422 -0.793366 0.159705
0.169454 0.520836 -0.836669
0.214701 0.975576 -0.0464157
0.738637 0.182759 0.648856
0.30356 0.86004 0.4101
0.33091 0.54362 -0.771347
0.14683 -0.861878 0.485393
0.761319 -0.484346 0.431049
-0.786851 0.344941 0.511743
-0.638327 -0.710957 0.295092
0.236094 -0.668272 -0.705459
-0.289416 0.38962 -0.87432
-0.0768714 -0.982362 -0.17046
0.839098 -0.327165 -0.434601
0.249101 0.472344 -0.845482
0.211131 -0.35364 -0.911242
-0.123349 -0.705025 -0.698373
0.573574 -0.151408 0.80504
0.279152 -0.00421546 -0.960238
-0.887439 0.343605 0.307227
-0.00869308 0.330659 -0.94371
0.185987 -0.590681 -0.785178
-0.833202 0.528098 -0.163974
-0.428183 -0.183921 0.884778
0.109859 0.812828 0.572051
0.848056 -0.29567 0.439751
0.104411 0.28931 0.951524
0.132737 0.691499 0.710077
-0.075713 -0.954366 -0.288882
0.512782 -0.459252 0.725357
0.571042 0.820687 -0.0195887
0.505884 -0.394947 -0.766876
0.644674 0.179713 0.743033
0.302395 0.893538 -0.331884
-0.402184 -0.914324 -0.0475289
-0.480909 0.65589 0.581838
0.417241 0.237812 0.877129
0.43265 -0.66649 0.607129
0.0513931 -0.263633 -0.963253
-0.329971 0.91781 0.220781
0.421189 0.765562 -0.486328
-0.123578 0.245556 -0.961473
0.692417 -0.621389 -0.366653
0.889084 0.226563 -0.397742
-0.841818 0.258674 -0.473742
0.805911 -0.431638 -0.405212
0.0733127 0.912756 -0.401872
-0.190893 -0.473929 0.859623
0.563988 0.551833 -0.614327
0.247359 0.0112343 0.968859
-0.522453 0.809248 -0.268627
0.559033 0.124133 0.819801
-0.378098 0.715218 0.587796
0.228084 -0.801265 0.553129
0.673455 0.0601959 0.736773
0.819978 0.251936 0.513969
0.659672 -0.453912 -0.598996
-0.179124 0.227749 -0.957102
0.397739 -0.890029 0.222829
0.854723 -0.130846 0.502323
-0.408118 -0.00339266 0.912923
0.179496 -0.647404 -0.740709
-0.847497 -0.271031 -0.456389
-0.752575 0.116442 0.64813
0.498934 -0.712413 0.49349
-0.384005 0.0548473 -0.921701
-0.229122 -0.319649 0.919417
-0.20104 0.0512292 -0.978243
0.514707 0.542678 0.66376
0.682638 -0.0125968 -0.730648
-0.0522895 0.0757368 0.995756
-0.391355 0.718964 0.574398
-0.605537 0.785898 -0.125255
0.247792 -0.657501 0.711542
0.77147 -0.210846 0.600315
0.72306 -0.282817 0.630237
-0.0467882 0.839329 -0.541606
0.267984 0.139808 -0.953225
-0.0951019 0.629147 0.771446
0.68464 -0.0902605 0.723271
0.19183 -0.976756 0.0956481
0.517796 0.0650497 0.853027
0.271929 -0.851541 -0.448255
0.719005 -0.40959 0.561487
-0.560328 0.629526 -0.538264
0.56037 0.383952 -0.733871
-0.139731 -0.336388 0.931299
-0.68364 0.521493 0.51057
0.124576 -0.239776 0.962802
-0.901152 0.0613981 -0.429134
-0.147775 0.15983 -0.976021
0.114243 -0.24985 -0.961521
-0.159676 0.887131 0.433015
0.566987 0.600669 -0.563669
-0.502337 -0.547671 -0.669114
-0.346195 0.456463 0.819628
0.782252 -0.0253397 -0.622447
0.944661 0.0192352 0.327483
0.0860001 0.48178 0.872062
-0.0895892 0.392928 0.915195
-0.416259 -0.831007 0.368993
0.188123 -0.473422 -0.860512
0.508762 0.568553 0.646459
0.0177095 0.849099 0.527937
-0.355063 0.728055 -0.586401
0.445996 0.745106 -0.495887
0.669751 0.025869 -0.742135
0.735989 0.290696 0.611405
0.224249 -0.342065 0.912526
0.0903692 0.552845 0.828369
0.211553 -0.977356 0.00452274
0.650067 -0.442861 -0.617484
0.860774 -0.461546 0.214577
-0.787897 0.0146228 0.615633
0.564727 0.412922 0.714548
0.55172 -0.65062 0.521822
0.631299 -0.0315781 -0.774896
-0.860577 0.509315 0.00215716
-0.712775 -0.301647 -0.633215
0.806928 0.351538 0.474645
-0.478709 -0.244101 -0.843358
-0.630448 -0.176183 -0.755973
-0.535473 0.138643 -0.833095
0.762793 0.145266 0.630115
0.361185 0.00111706 0.932493
0.0764359 -0.181902 0.980341
0.341078 -0.0433195 0.939036
0.851601 -0.0126251 0.524038
-0.897971 0.0344551 -0.438705
0.0435082 -0.315339 0.947981
-0.522202 -0.452504 -0.722873
-0.0557662 0.362042 0.930492
-0.474451 -0.130839 -0.870504
-0.923472 -0.087615 0.373528
0.359831 -0.448633 -0.818077
-0.925404 -0.125206 0.357703
-0.124682 0.535554 0.835246
0.330487 -0.171667 0.928067
0.26472 0.719761 0.641769
0.148264 0.779123 0.609086
0.169591 -0.627329 0.760064
0.344717 -0.758749 -0.552693
-0.605463 0.247994 -0.75625
0.886578 0.1679 0.431033
0.478839 -0.759886 0.439643
-0.194868 -0.703732 0.683218
-0.214852 0.958562 0.187077
-0.365093 0.874493 -0.319325
0.219986 0.227892 0.94851
0.482887 0.60432 -0.633732
0.115764 -0.271046 0.95558
0.0208661 -0.473598 0.880494
-0.282962 0.277244 0.918187
-0.0935021 -0.743209 0.662494
0.900894 -0.14956 0.407458
-0.156045 0.63974 0.752584
0.609767 0.769208 -0.19106
0.170178 -0.723579 -0.668934
0.163334 0.731536 0.661949
0.253636 -0.164745 -0.953167
-0.65608 0.341467 -0.673023
-0.256349 -0.589517 -0.766
0.685289 0.597566 0.416285
-0.0999066 -0.70836 -0.698746
0.427741 -0.477478 -0.767498
0.158376 -0.699259 -0.697104
0.760101 0.115199 -0.639513
0.213217 0.829372 -0.516411
-0.811862 0.1381 0.567282
0.625618 0.178681 -0.759391
-0.285941 -0.941558 -0.178062
-0.706701 0.706276 0.0418075
-0.725772 0.477754 -0.494981
0.541315 -0.441521 0.715567
0.025827 0.187772 0.981873
-0.154728 0.534022 -0.831192
-0.740083 -0.36988 0.561664
0.759436 0.0652054 0.647307
-0.365343 0.805544 0.466502
0.315987 0.272985 0.908643
0.491776 -0.452106 0.744148
0.221465 -0.836821 0.500683
-0.180493 -0.498065 0.848147
-0.299612 -0.117268 -0.946827
-0.21874 0.835729 -0.503696
-0.70531 -0.672934 0.222932
0.168089 0.494652 0.852681
0.592616 0.632816 -0.498348
0.168606 0.0789825 -0.982514
0.535639 0.0720487 0.841368
0.0206948 -0.889123 -0.4572
-0.851398 -0.313156 -0.42078
-0.56899 -0.368043 -0.735387
-0.116743 -0.568349 0.814464
-0.168267 -0.0342471 0.985146
0.479859 -0.187819 0.857006
0.158501 0.344869 0.925172
0.431418 0.23675 0.870533
0.937988 -0.0979556 0.33254
-0.249784 0.0595617 -0.966468
0.556892 -0.0821672 -0.826511
-0.740915 -0.669074 0.0581813
0.231278 0.888579 -0.396153
-0.220653 0.688433 0.690922
0.152901 -0.0774387 0.985203
0.115432 0.354823 0.92778
-0.663752 0.48973 -0.56533
0.00111053 0.0679572 -0.997688
-0.041288 0.812736 0.581167
-0.264395 0.427914 -0.864283
-0.0871675 -0.89829 -0.430671
0.230031 -0.621211 0.749121
-0.425433 0.564862 -0.707062
-0.506656 0.192815 -0.840311
-0.772802 0.0231723 -0.634224
0.454958 -0.628339 -0.631034
0.0775785 -0.333701 -0.939481
-0.504041 0.0626958 0.861401
0.00722237 0.126235 0.991974
-0.276977 0.110055 -0.954553
-0.70974 0.00110295 -0.704463
0.649932 0.0552296 -0.757982
0.744772 0.601618 0.28874
-0.109178 0.899605 0.422836
-0.408735 0.503227 0.761379
0.735403 -0.256924 -0.627035
-0.891966 0.102379 -0.440358
-0.177248 0.726017 -0.664442
0.372047 0.296109 0.879716
0.90911 0.0454147 -0.414073
0.570712 0.148127 0.80768
0.552566 0.706089 -0.442843
0.244963 0.598314 -0.762898
-0.449375 -0.124113 0.88468
0.327402 -0.149512 0.932981
0.282224 0.374305 0.883315
-0.433969 0.308575 0.846435
-0.15353 -0.286318 -0.945754
0.533611 -0.603749 -0.592238
0.477294 0.362492 0.800494
0.263031 0.382039 -0.885923
0.53382 0.752008 0.386678
0.289546 0.582821 -0.759265
-0.472314 -0.498789 -0.726725
-0.729809 0.121401 -0.672785
0.0858989 -0.461422 0.883013
0.113087 -0.632863 0.765961
-0.957763 0.0670738 -0.279625
0.269551 -0.719193 0.640394
-0.575819 -0.683384 -0.448798
-0.497282 0.803309 -0.327727
-0.223398 -0.189102 -0.956208
-0.816307 -0.567249 0.108961
0.576378 0.393525 0.716189
0.287253 0.580355 -0.762019
-0.580896 0.753696 0.307411
-0.205393 -0.615237 0.761116