# vtk DataFile Version 3.0.
comment
ASCII

DATASET POLYDATA
POINTS 6898 double
0.106428 0.229558 0.293399
1.9248 2.08243 2.03649
0.257542 0.584557 -0.022307
1.93779 0.325314 1.21722
2.40278 1.24554 2.08452
2.60757 0.71665 2.03871
1.21499 1.17853 2.06376
2.34762 0.916425 0.691252
2.99204 0.494563 1.87293
3.01369 2.68672 2.06188
1.76872 0.103122 1.78562
3.60286 2.60748 -0.0602496
-0.126215 1.59319 1.95616
2.46099 2.09786 1.15978
2.11981 2.70342 1.56051
0.377259 3.30616 1.84982
3.06148 1.90586 1.24746
0.326093 2.69547 0.799773
1.54407 1.20874 1.43372
0.0749183 1.09188 1.6495
0.325736 0.231143 -0.117151
0.113494 2.05242 1.9655
3.07641 1.75756 1.20173
0.921091 0.104543 1.12139
3.31689 2.57768 1.94474
0.341912 0.499135 0.690702
2.99936 3.1248 1.38836
0.203718 0.851105 -0.0515405
2.94017 1.69229 1.64078
3.04749 1.27594 2.02245
0.793623 1.28473 1.97918
3.41271 3.07623 1.38601
2.43199 1.70013 1.89905
0.178828 3.00341 0.998265
0.336406 0.214496 1.81746
2.83954 0.655862 0.747493
2.38748 1.90799 1.99818
0.664789 2.13038 2.07604
0.353251 3.15443 0.730349
1.39995 3.3116 1.52118
0.178192 0.119151 0.740371
2.4262 2.81008 -0.0386773
0.306921 2.85281 1.95262
1.41311 0.309329 1.76994
0.935749 2.9344 1.98253
0.295853 1.33237 0.411151
-0.0346202 0.848917 0.828203
0.152101 1.48029 1.37029
0.225344 0.142124 0.203726
1.30899 0.791114 2.0422
0.374166 2.8796 -0.0511116
3.22428 3.36041 1.74777
2.2377 2.48087 2.0342
1.21501 3.235 1.35526
2.74839 0.646284 2.01672
0.719232 1.60062 2.00532
1.65886 2.36872 2.01278
0.864697 0.393173 2.00113
2.06804 1.72532 1.92221
0.221848 3.2691 1.02786
2.22678 2.68267 1.69131
3.27197 2.27211 0.196961
0.0888974 2.41644 1.27108
2.76153 2.72089 1.97183
2.74517 0.393838 0.00441798
0.0242209 2.06662 1.36368
0.104052 2.33937 1.98447
1.12267 1.53164 1.23716
0.163948 2.20843 0.167403
0.145988 2.05181 0.0792696
2.77874 3.04726 0.955198
0.957961 1.0104 1.72448
0.225507 0.389582 1.15849
1.89416 0.14469 1.71438
-0.0427845 1.96601 1.65145
0.447217 2.44949 -0.106739
0.379038 1.05713 0.0155353
0.273011 1.5884 0.413598
3.16267 0.556314 2.08598
0.301962 1.7154 0.238151
2.97738 1.18949 -0.0434925
3.06089 1.33665 1.84598
1.60432 1.47783 2.02755
1.195 0.724329 1.91015
2.28501 2.13486 0.0529974
0.363559 1.33344 0.835475
1.67896 2.87176 1.92096
1.6406 2.19278 1.84518
1.86762 1.10883 1.84021
3.07171 0.328972 1.98885
3.4619 1.70969 0.930576
0.0455369 1.70399 -0.0678088
3.60553 0.248552 0.380693
1.4003 2.40151 1.32495
2.33238 1.95204 1.75162
1.5153 -0.0456842 2.09032
2.40315 0.242056 1.90644
0.304962 2.31726 0.13483
0.274481 2.1561 0.253852
0.840108 0.637408 1.80512
2.2048 2.98046 1.64082
2.32392 1.82105 1.94519
2.25723 2.85669 -0.0754141
2.9666 1.85175 1.99848
2.74932 1.19259 1.4592
0.268994 2.41687 0.0620477
1.63711 3.43998 1.96163
2.79022 2.36714 2.04665
0.961972 0.140757 2.00757
0.224139 0.938258 1.9179
2.27667 0.0811125 0.827496
0.151681 1.62635 -0.145152
0.193085 1.56793 0.0412211
0.237739 1.72754 -0.0251855
0.680291 0.0852158 1.927
0.320576 0.232528 1.50032
0.552454 1.70354 0.028698
2.39061 1.00878 1.07993
0.128782 2.24067 1.44449
2.45818 2.14789 1.91993
0.0116409 1.48419 1.89745
1.55509 1.51039 1.79926
2.07615 2.20135 1.83238
1.39843 1.82993 0.0398248
2.97441 1.05713 1.75452
2.26653 -0.0519903 -0.0304022
0.119809 3.10064 1.97327
2.61096 2.51115 2.00265
0.653526 3.14556 1.72467
3.31955 1.40476 1.77961
2.89695 2.10983 1.97164
3.07445 0.789263 1.90927
3.40438 1.62253 -0.0106775
1.68814 0.335875 -0.095129
1.43369 0.425179 2.05669
0.217732 2.69593 1.9822
1.09675 1.85728 2.01321
1.02769 2.1217 1.94668
0.872423 2.81959 1.74027
2.55271 1.25897 1.015
1.4948 2.3855 0.22059
0.847662 2.99638 1.65286
0.300629 2.19848 -0.077043
2.48174 2.54139 2.05539
2.76773 2.83321 -0.0279185
0.161283 0.958163 1.22179
2.86198 0.794157 -0.0444275
1.9495 3.3856 1.24355
0.25777 0.538161 1.26135
1.07301 0.601281 1.8293
3.16055 0.150346 2.01229
2.34285 1.32471 2.0532
0.930483 2.68329 2.04873
0.610124 2.00698 1.79914
2.57931 1.82232 -0.0211334
2.93322 0.934779 1.97876
0.527712 2.19739 0.264532
2.45316 1.43989 1.12335
1.8934 2.3692 1.98598
2.17248 0.128709 0.575805
1.01118 0.418305 1.68471
0.478631 2.23016 1.47149
2.82668 0.953427 0.27464
3.22702 1.67495 -0.0925023
3.07383 -0.081391 0.645446
2.11654 0.412934 1.781
2.05184 1.05937 1.98768
0.238175 1.30943 1.74708
3.28706 1.23549 1.68494
3.18971 2.94857 1.80017
2.9134 1.07801 1.11751
0.400095 2.97736 -0.0708377
3.49676 0.62264 1.95482
3.0565 0.624528 1.80187
1.65807 0.954546 1.52376
0.936528 0.839819 1.77491
0.48273 0.0319294 1.86067
2.00631 1.76844 2.04096
0.421432 2.87293 0.640243
0.451105 2.14474 1.90964
3.55866 2.90847 -0.132755
2.79429 0.907832 1.31698
0.181806 0.949284 0.482684
2.76514 0.808973 1.08729
2.42186 2.55154 0.909336
1.67682 0.949897 2.00735
2.953 3.46614 0.383101
3.19655 3.28083 0.628775
0.111805 0.777222 -0.0794385
1.90738 3.16874 2.02159
1.94155 3.37244 1.35071
2.62339 1.53593 1.39894
0.11855 3.01444 1.18637
0.347984 0.703782 0.161368
0.406497 0.56909 0.164871
1.96339 3.49605 1.84029
1.99664 1.66927 2.02258
2.88628 1.63732 2.11719
3.3203 0.197631 2.02555
0.0891508 2.46904 1.74673
2.80244 2.72193 1.1472
2.27102 0.537789 0.264369
0.299678 3.22562 0.254351
3.00882 2.52899 -0.0256544
0.37347 1.63698 1.10564
3.24468 2.37142 1.57766
2.05374 1.2069 1.04159
0.290369 1.70888 1.92104
0.649886 0.936839 1.98864
0.326032 2.36651 1.74657
0.775282 0.796414 1.38709
3.12951 1.12636 1.99694
2.06751 2.03472 2.14861
0.272936 2.46849 -0.222322
2.20388 1.85894 1.43942
1.60241 1.22675 -0.101732
0.0666991 1.80251 1.5393
1.42629 0.422932 1.92283
2.01774 2.95136 1.99762
0.398356 2.7873 -0.0481765
1.19358 0.74657 -0.0535604
0.683763 1.87369 1.9909
0.257832 2.79959 1.21411
0.838637 3.34001 -0.176561
0.359601 0.567806 1.38597
0.440068 0.438334 1.26886
0.37093 0.467826 1.20597
0.368517 2.05897 1.70523
3.24365 2.54204 1.54156
0.323553 0.153765 1.5944
0.259267 2.67669 1.77062
0.246206 2.51521 1.76377
0.966022 0.106494 1.90589
1.36471 0.945517 2.00956
2.27602 1.79796 1.62606
0.330781 0.166427 1.90786
2.02582 0.383434 1.70625
2.26714 2.13006 1.51775
3.6054 0.369634 1.664
1.57886 0.170852 1.84018
0.371191 0.447854 1.63564
0.417731 1.41335 0.824277
0.189413 3.18282 0.837516
2.08321 2.804 1.59194
2.56062 1.82083 1.91747
2.33029 1.38037 1.68956
0.339294 0.970538 1.607
0.975351 3.31636 -0.159003
3.36593 1.39297 -0.0607817
2.92665 0.870873 0.00264367
3.21425 0.169611 1.51828
2.98493 3.34211 1.92928
1.38941 0.860405 1.70134
1.49623 1.09421 1.77757
3.52982 0.352556 2.0411
-0.0610677 3.25025 1.6966
0.358524 1.47886 1.41662
3.09677 1.31747 0.992155
3.34596 0.367495 0.621316
1.07533 0.233001 2.00114
2.4705 3.28943 1.90196
3.31418 3.34214 1.97256
2.34278 3.05938 1.76873
3.04726 1.97801 1.96943
1.43821 0.333197 1.92975
-0.167955 2.19064 1.27884
0.37038 3.02529 1.81473
0.173055 2.49675 1.91479
0.061714 1.16065 0.167742
2.79745 0.0893074 1.48137
2.6069 3.23203 0.530589
2.02926 0.696197 1.85663
3.47028 2.00515 2.06383
2.14195 1.94988 2.09833
0.456428 0.18512 0.918769
0.443633 0.317288 0.886989
1.69487 3.14118 1.89768
0.671651 0.489307 1.52385
0.218655 1.09975 1.83711
2.43969 2.42587 1.80806
3.03744 1.90556 0.201854
2.86027 2.61524 1.1318
1.46962 3.05471 1.62371
2.70308 1.73253 1.91268
1.8804 1.87849 2.06673
0.233171 0.558079 1.55242
2.61024 3.38719 0.585562
2.58617 3.35412 1.05437
2.79421 0.42631 1.18642
0.276211 3.29535 1.72714
-0.0550538 0.210592 1.68321
2.02779 1.42669 1.213
0.28915 3.10904 1.80046
2.9819 1.17041 1.3937
1.70018 0.521358 2.01081
0.0336123 2.93337 1.8584
0.774721 2.64017 2.02755
2.29567 2.89215 1.26703
3.2929 0.47431 1.35678
3.59398 2.7569 -0.0131715
2.08839 1.41846 0.376728
1.61303 0.622341 1.7187
2.39553 0.737662 0.0454017
0.305487 0.799962 1.30642
1.60236 2.30392 1.26028
0.394083 0.761362 1.1967
0.477295 0.611324 1.17533
-0.0462944 3.19033 1.41614
0.39405 1.2877 1.38047
2.47361 1.76766 1.92064
2.6433 0.585629 1.32085
1.11004 1.94935 1.98781
0.42347 2.13086 0.624733
0.419163 2.96925 0.669884
0.436138 3.08048 0.581899
-0.0665467 1.22368 -0.0359329
1.14785 2.37541 1.20765
1.37415 0.774444 1.19576
1.99684 1.39142 0.267909
0.497205 2.33372 1.86941
2.39595 1.57218 2.11494
1.60462 2.67765 1.71451
1.28784 2.51447 0.349172
2.62751 1.24268 1.93446
0.419068 3.08985 0.347947
3.33306 1.74215 0.703949
3.34889 1.66292 1.39686
0.353201 2.70569 1.84417
0.24413 1.68042 1.26033
0.757233 1.95047 1.71028
2.09692 2.87259 2.04164
2.93973 1.68454 1.5425
0.341683 2.2363 1.32366
0.0523814 0.224114 1.03254
1.65979 3.32009 2.13286
2.06346 0.942949 1.16973
2.8695 3.26046 1.74568
-0.0190352 0.232521 2.00137
0.520807 0.262795 1.78409
2.5159 2.33287 0.396662
1.23375 2.74149 1.40235
0.195794 0.993475 1.80843
0.334684 0.267766 0.670581
2.55662 1.67972 1.01013
1.74708 3.39062 2.14557
0.186568 0.889754 1.81826
1.78541 0.836711 1.83995
1.45274 1.07924 -0.0366877
3.30106 3.18316 1.62583
2.52443 3.34597 0.526055
2.52201 3.34224 0.375351
2.8091 0.863135 0.203173
0.0518557 2.82062 1.96142
0.341264 1.53171 0.179235
2.44296 1.19172 1.24669
1.06365 0.0466298 2.04746
2.56341 0.845406 1.7593
0.625463 3.08663 1.29676
0.0331601 0.901958 0.655787
0.468989 0.50196 0.805417
2.34056 2.5502 0.605011
1.12812 1.43476 0.349022
2.35624 2.03817 1.99588
0.301233 0.0497625 1.84464
1.7083 0.76453 1.90609
2.44236 1.11213 2.00719
1.81735 2.04464 1.86275
0.857666 0.584783 1.58022
2.52528 3.47352 1.06343
2.74151 2.67964 1.44213
1.95155 0.376627 1.89874
0.557654 0.592603 1.68071
0.0353221 3.38781 1.92535
2.51429 0.807998 1.56326
0.335828 3.09724 1.89809
2.86348 2.39969 0.118359
3.24354 2.37202 1.69835
0.573981 0.0951545 1.76731
0.224653 0.0516084 0.446896
2.39526 1.36667 0.190484
0.22867 0.400045 1.78542
2.89466 1.53444 1.38399
0.957345 3.40557 1.60881
2.39488 0.663261 2.056
2.92019 1.69492 1.38953
3.28288 0.204903 1.29195
0.724042 3.2016 1.12903
0.0517448 1.03326 1.95745
3.31857 1.45853 0.858453
2.7079 1.81069 0.65695
0.586875 1.24566 0.00942233
0.408567 2.72944 0.786315
0.321579 2.06712 -0.0621241
0.439662 -0.0937305 0.361234
3.05515 0.694733 1.04777
1.87609 1.66422 2.0499
[...]
POINT_DATA 6898

VECTORS nn double
0.0566308 -0.898445 -0.43542
0.660651 -0.0162933 0.750516
-0.371248 -0.145305 -0.917094
-0.0686585 0.578383 0.812871
0.24265 -0.646365 -0.723418
0.657087 -0.387119 0.646819
-0.748926 -0.314137 0.583462
0.257624 0.43605 -0.862259
-0.681602 0.722575 -0.115345
-0.634128 0.0546157 0.771297
0.252821 0.416255 0.873392
-0.799248 -0.0195589 -0.600682
0.0096611 0.146563 -0.989154
0.824181 -0.17957 0.537103
-0.234875 0.724885 -0.647592
0.780337 -0.198017 0.593181
-0.254617 0.795585 0.54974
0.410457 0.234978 -0.881085
0.382744 0.82427 -0.417237
0.630364 -0.0961165 0.770326
-0.444549 0.256462 -0.858256
0.127104 0.0183927 -0.991719
-0.0739884 -0.997254 -0.0031549
0.00143266 0.349588 0.936903
-0.197828 0.480556 0.854359
0.531041 -0.589597 0.608581
0.680802 0.46285 0.567696
0.23775 0.866829 -0.438272
-0.645047 -0.412702 0.64311
-0.00962074 -0.545607 0.837986
-0.120334 -0.631559 -0.765933
0.0452613 0.874588 -0.482749
0.341643 0.125037 0.931475
-0.0982163 -0.376499 -0.921196
-0.543963 0.411984 0.731009
-0.678493 0.0183142 0.734378
0.452695 0.79829 -0.39724
0.0475208 -0.0618824 0.996952
-0.961043 -0.250009 0.117865
0.453102 -0.234812 -0.859978
-0.936636 0.278433 0.212576
0.695784 -0.708999 -0.114909
0.756964 -0.335148 0.560965
0.146798 -0.39906 0.905097
-0.508458 0.383858 -0.770794
0.538419 0.409646 -0.736407
-0.757537 -0.151073 -0.635071
-0.160997 0.590022 -0.791173
-0.934789 -0.168955 0.312448
-0.349761 -0.512285 0.784367
-0.104578 -0.677701 -0.727863
-0.60164 -0.172307 0.779962
-0.475595 -0.546385 0.689401
-0.356082 0.372116 0.857167
-0.52074 0.201532 0.829587
0.28283 0.567957 -0.772938
0.286113 0.491108 -0.822771
0.267964 -0.779192 0.566617
0.451925 0.020902 -0.891811
0.657254 0.194254 0.728205
-0.687403 -0.543982 -0.481207
0.56205 0.823862 0.073151
-0.827373 0.103103 -0.552108
0.740257 0.510071 0.438003
-0.857414 0.421992 -0.294556
0.851747 -0.334305 0.403445
0.831578 -0.536838 -0.142418
-0.241064 -0.00810768 0.970475
0.602089 0.556659 0.572381
0.438355 -0.868901 -0.229902
-0.690419 0.663044 0.2893
-0.741351 0.326941 0.586096
0.180931 0.76595 -0.616915
0.431995 -0.858016 0.277831
0.378358 -0.583891 -0.718273
-0.201029 -0.645433 -0.736888
-0.0638783 0.032854 -0.997417
-0.319583 0.757355 -0.569456
0.746596 -0.273685 0.606375
-0.546046 -0.23665 0.803636
-0.80045 -0.457889 -0.386804
0.129146 0.0822255 -0.988211
-0.595927 0.70815 -0.378675
-0.712553 0.319312 0.624746
-0.184 -0.268574 -0.945522
0.898581 0.145718 0.413906
0.336864 -0.0811177 -0.938052
0.591346 0.329874 0.735862
-0.00725235 0.447127 0.894441
-0.0487402 -0.591983 0.804475
-0.552001 -0.224009 0.80319
-0.838249 0.437097 -0.326014
0.457291 0.679768 -0.573411
0.216568 0.0279344 -0.975868
0.808935 -0.289928 -0.511436
0.535494 -0.333239 0.776015
-0.5606 -0.475042 0.678279
0.489096 0.2855 -0.824181
-0.253578 0.962463 -0.0967615
0.228302 -0.556696 -0.798729
0.550281 -0.629884 0.548121
-0.232715 -0.14087 -0.962289
-0.846539 -0.283801 -0.450364
0.702913 0.460633 0.541969
0.0368784 -0.209381 0.977138
0.797525 -0.569422 -0.19928
0.120228 0.63574 0.762483
-0.256826 0.00514074 0.966444
0.816621 0.105445 0.567461
0.0208437 -0.0593074 0.998022
-0.0368049 -0.689394 0.723451
0.0535002 -0.215002 -0.975147
0.399864 -0.703311 0.58776
0.773765 0.632665 0.0319762
0.397554 0.524246 -0.753072
0.865213 -0.215237 0.452857
-0.182146 -0.0115857 -0.983203
0.0984055 0.597633 -0.795708
-0.832191 0.0613087 -0.551089
0.39944 -0.000277437 0.916759
-0.373411 0.232602 0.898031
-0.00630251 -0.879871 0.47517
0.30061 -0.191001 -0.934426
-0.373975 0.266297 -0.888386
-0.271344 0.755344 0.596513
-0.574686 0.280317 -0.768868
0.650244 -0.324321 0.687022
0.873548 -0.473709 0.111861
-0.686607 -0.389262 0.614041
0.332985 -0.701097 0.630542
0.415843 0.885094 -0.209004
0.671816 0.370363 -0.641479
0.161819 -0.534809 -0.829334
-0.507122 0.433322 -0.745023
-0.171549 0.508753 0.843648
0.462278 0.164745 0.871297
0.692002 0.248687 -0.677708
-0.110284 0.66382 -0.739717
-0.580404 -0.68171 0.445423
-0.91762 0.169378 -0.359561
-0.760975 -0.321587 0.563471
-0.812485 -0.16734 0.558449
-0.68672 0.551386 -0.473697
-0.662179 -0.1153 0.740422
0.680039 -0.517708 -0.519159
0.61378 -0.70484 -0.355632
-0.193007 -0.0998405 -0.976105
-0.543719 -0.22369 -0.808908
0.664668 -0.563572 0.490513
-0.808315 0.395658 0.435983
0.410876 -0.1286 0.902576
-0.229348 -0.0239885 -0.973049
0.734158 0.113722 0.669387
0.134522 -0.571922 0.809203
0.611888 -0.160567 -0.774475
0.434621 0.0465324 0.899411
-0.431463 -0.195033 -0.880796
0.869866 -0.227062 -0.437923
0.49929 0.2753 0.821535
0.734178 0.531592 -0.422367
-0.147256 -0.358472 0.921853
0.313408 -0.4645 0.82826
0.791836 -0.528481 -0.30611
-0.367618 0.771881 -0.518707
0.355048 -0.377646 -0.855175
0.672123 0.680504 -0.291831
0.0178233 -0.36077 -0.932485
-0.729902 0.255686 -0.633931
-0.546442 -0.118469 0.829076
-0.265947 0.746051 0.610476
0.774135 0.28517 0.565149
0.160859 0.321858 -0.933023
0.194328 -0.052433 -0.979534
-0.630686 -0.36449 -0.685114
0.13148 -0.679663 0.721645
-0.109634 0.129598 0.985487
0.806057 -0.286666 -0.517779
0.377989 -0.600632 -0.704532
0.460574 0.28107 0.841945
-0.579561 -0.506106 -0.638722
-0.0650538 -0.540055 -0.839112
-0.794286 -0.315822 0.519006
0.708478 -0.690735 -0.144724
0.624274 -0.491569 -0.607159
0.0181179 0.902411 -0.430495
0.89596 0.0233228 0.443523
0.145619 0.275563 -0.95019
-0.676211 0.173516 -0.715982
-0.68091 0.132559 -0.72027
0.565136 0.112363 0.81731
0.652579 0.402549 -0.641946
0.460375 -0.731395 -0.503107
-0.624656 -0.277537 0.729916
0.335602 0.786521 0.518418
0.793924 -0.266535 0.546484
-0.250243 -0.103967 -0.962585
0.506998 0.73116 -0.456462
0.899549 -0.355807 0.253404
0.414518 -0.904079 0.104
0.0533312 0.141242 0.988538
-0.396693 0.513972 -0.760571
-0.287871 -0.768028 0.572069
0.814891 0.579415 -0.0151966
0.0290993 -0.30398 -0.952234
0.935332 -0.224253 -0.273614
0.386081 -0.797692 -0.463281
0.590775 0.325999 -0.738045
0.419099 -0.819271 0.391344
0.613596 0.49285 -0.616927
-0.470479 0.714422 0.517929
0.542916 -0.0577051 -0.837802
0.642363 -0.491125 0.588358
0.79191 -0.469653 0.390262
0.094474 -0.370666 -0.923949
-0.149335 -0.261124 -0.953684
0.418434 0.62339 -0.660528
-0.549857 0.802278 0.232393
-0.26275 0.476107 -0.839217
0.00939024 -0.261649 0.965117
-0.411908 0.500926 -0.761186
-0.698356 0.10841 -0.707493
0.45825 -0.500919 0.734225
0.416104 -0.557031 -0.718731
-0.770315 -0.34067 -0.539036
-0.189968 -0.810243 -0.554454
-0.862561 0.273591 0.425602
0.286283 -0.0271565 -0.95776
0.0751166 0.173806 0.981911
-0.379579 -0.542478 0.749425
0.83707 0.437848 -0.32803
0.508594 0.761238 0.402305
0.377237 -0.863989 0.33349
0.857573 -0.239225 -0.455346
0.143919 0.856286 0.496047
-0.420533 0.743083 -0.520557
-0.492013 0.862952 -0.115056
-0.0550003 0.445502 -0.89359
-0.110114 0.266371 0.95756
0.497754 -0.133809 -0.856934
-0.314407 -0.480659 0.818606
0.534233 0.659325 -0.529042
0.260491 -0.796188 0.546103
-0.401972 0.487391 0.775157
0.123618 -0.260087 -0.957639
0.764716 -0.146823 0.627418
-0.33936 0.270343 0.900971
-0.068316 0.920008 -0.385899
0.719772 -0.600019 -0.34915
0.0882251 0.527484 -0.844972
0.504027 0.72669 -0.466775
0.734786 -0.113963 0.668657
-0.485982 -0.615867 -0.620104
-0.752748 0.0126033 -0.658188
-0.250082 0.291126 0.92342
-0.315421 -0.719685 0.618517
-0.329416 0.692814 -0.641477
0.712113 -0.657522 -0.24609
0.376308 -0.42171 -0.824956
0.238954 -0.931008 0.27591
-0.225196 -0.744284 0.628751
0.438403 -0.00808471 0.898742
0.661079 -0.601354 -0.448719
-0.280461 -0.268704 0.921488
-0.0168545 0.613572 -0.789459
-0.113665 -0.647638 -0.753422
-0.509781 -0.651276 0.562106
-0.409426 0.0821993 -0.908633
0.758832 0.127069 0.63877
0.00855389 0.979213 0.202655
-0.199516 -0.692271 0.693509
0.418321 -0.441775 -0.793626
-0.48785 0.393742 0.779083
0.30815 -0.585539 0.749791
0.013716 0.414452 0.909968
-0.756527 0.383955 -0.529382
-0.650924 -0.710878 -0.266366
0.237514 0.0677922 -0.969016
-0.405392 0.0151428 -0.914018
-0.574607 -0.161692 -0.802298
-0.10572 -0.558531 -0.822719
0.941951 -0.0306431 0.334348
0.114293 -0.428627 -0.896223
-0.45463 0.592873 -0.66469
0.436975 -0.599404 -0.670648
-0.782157 0.413956 -0.465695
-0.127436 0.917979 0.3756
0.444133 0.82839 -0.341345
0.0286651 -0.62341 -0.781369
-0.553649 0.576739 -0.600703
-0.410111 -0.325346 -0.852033
-0.625783 0.259699 0.735494
-0.0348702 0.122205 0.991892
0.217294 -0.563362 -0.797124
0.333716 0.775891 0.535376
-0.428336 0.602295 -0.673624
0.281116 0.832506 -0.477396
-0.830629 -0.319386 0.456123
0.726957 -0.0822274 -0.681742
-0.87942 0.0576903 -0.472537
0.510162 0.273918 -0.815293
-0.43563 0.628001 -0.644857
0.187144 0.847438 -0.496816
-0.652033 0.124451 -0.747907
0.860503 0.419024 -0.289746
-0.0444813 -0.71439 -0.698332
-0.0955315 -0.749581 -0.654983
-0.755503 0.437289 -0.487846
-0.670077 -0.0927741 -0.736471
0.424018 0.904335 0.048863
-0.18211 -0.726305 0.66281
-0.747866 0.655945 -0.102144
0.553785 -0.723893 -0.411463
-0.902095 0.221777 0.370188
-0.47927 0.696395 -0.534167
-0.672188 -0.572479 0.469502
0.0306006 0.346389 -0.937592
-0.672109 -0.232074 0.703143
-0.300115 -0.850827 0.431306
0.374791 0.870917 0.31786
0.693065 -0.493974 -0.525024
-0.0685286 0.95161 0.299571
-0.0580416 0.587874 -0.806868
0.690625 -0.156105 0.706165
0.0845986 0.0468634 -0.995312
-0.728736 -0.229531 0.645181
-0.688578 0.27708 0.670139
0.422303 0.110592 -0.899683
-0.730289 0.379905 -0.567759
-0.114843 0.128723 0.985008
-0.518913 -0.609062 -0.599811
-0.692842 0.437351 0.573318
-0.649896 -0.507548 -0.565712
-0.820105 -0.413581 -0.395446
-0.390224 0.524693 -0.756586
-0.892987 0.280906 0.351661
0.239617 -0.145341 0.959927
-0.460862 -0.0539531 -0.88583
-0.276349 0.217925 0.936023
-0.57468 0.60067 0.555822
0.474686 -0.791089 0.385813
0.227974 -0.439672 0.868744
-0.384631 0.730516 -0.564275
0.744132 -0.600123 -0.29346
-0.622526 -0.603821 -0.497857
-0.156829 0.874794 0.458411
0.513015 0.748245 0.420648
-0.0708371 0.471403 -0.879069
-0.803447 -0.581336 -0.128535
0.0429622 -0.294849 0.954578
-0.25828 0.493065 -0.83077
-0.231362 0.532757 0.814028
-0.935434 -0.213954 -0.281402
0.493872 -0.481932 0.723762
-0.761421 -0.420255 -0.493582
0.108069 -0.710608 -0.695239
-0.117454 0.972396 0.201622
0.755149 -0.0391115 0.654385
-0.584345 -0.243255 0.774189
-0.716924 0.46915 0.515673
-0.643502 -0.618374 -0.451131
0.0704392 -0.210368 0.975081
-0.0554766 0.409957 0.910416
0.767427 -0.52167 -0.372714
-0.743754 -0.134439 -0.654795
-0.9313 -0.340064 -0.130522
-0.231428 0.951508 0.202667
-0.339521 -0.367345 -0.8659
0.0894661 -0.140191 0.986074
-0.532521 0.475217 -0.700421
-0.676497 0.0137649 -0.736317
-0.650337 0.389839 0.651988
0.0548861 -0.82752 0.558747
-0.519615 0.606985 0.601307
0.3764 -0.329777 -0.865777
-0.698159 0.684908 -0.208504
-0.84957 -0.258318 -0.459894
-0.376257 0.791232 -0.482061
-0.0947673 -0.909997 0.403638
-0.615377 -0.116542 0.77957
-0.184145 -0.307115 -0.933687
0.648472 -0.263927 -0.714022
-0.295971 0.671441 0.679389
-0.317717 -0.280734 0.905673
-0.647303 0.760429 0.0524039
0.497072 0.589785 -0.636453
0.0942382 -0.697285 -0.710572
0.248508 0.725618 -0.641657
-0.376644 -0.586583 -0.716979
-0.457089 0.41755 0.785316
0.100224 -0.969208 -0.224925
0.4597 0.782134 -0.420646
-0.684405 -0.216463 -0.696228
-0.466958 -0.825428 -0.317204
-0.3297 -0.30788 -0.892473
0.850215 0.0499358 -0.524062
-0.711244 0.679494 -0.180057
0.18454 0.738333 0.648699
0.573899 0.324346 0.751958
0.129363 0.799078 0.587145
0.948751 -0.263745 -0.174097
0.499491 -0.183347 -0.846695
0.746644 0.0122226 0.665112
0.341398 0.262477 0.902526
-0.559182 0.489539 0.669079
-0.0900902 -0.421589 0.902301
-0.714967 -0.325494 -0.61877
0.45939 0.122188 0.87979
-0.352671 -0.393648 -0.84892
-0.690137 0.413928 -0.593612
0.943451 -0.0202822 -0.33089
-0.16063 -0.888795 0.429233
-0.0210922 0.522757 0.852221
0.0653761 0.240021 0.968564
0.677941 0.166725 -0.71596
-0.374472 0.606746 0.701164
0.0354408 -0.662824 -0.747936
0.108491 0.405249 0.907746
0.249408 0.378001 0.891578
0.867766 -0.486089 0.103441
-0.0921482 0.720261 -0.687556
-0.257846 -0.8952 -0.363501
0.338878 -0.0788568 -0.93752
0.618143 0.604451 -0.502531
0.219482 0.801915 0.555662
-0.679369 0.371922 -0.632559
0.226625 0.639205 0.734886
0.785927 -0.602714 0.138036
-0.435719 0.180005 0.8819
-0.347652 -0.0247874 -0.937296
-0.757388 -0.618577 -0.209107
-0.604541 0.0308947 0.795974
-0.147289 0.903844 -0.401712
-0.240737 -0.227016 -0.943668
-0.607354 -0.0462123 0.793086
-0.499212 0.244001 0.831415
0.504543 0.860809 -0.0666603
-0.541406 0.588467 -0.600488
-0.0912607 -0.644882 -0.758814
0.239986 0.589472 -0.771317
-0.433089 0.724895 -0.535687
0.967933 0.242028 -0.0672883
-0.895647 -0.0772943 -0.437998
-0.561934 -0.825092 -0.058763
0.836971 0.262681 -0.480081
-0.444134 -0.664429 -0.601064
-0.651004 0.168352 -0.74017
-0.490914 0.847687 -0.201071
-0.868922 -0.0836599 -0.487827
-0.758336 0.314221 -0.571132
-0.0496821 -0.706613 0.705854
0.347682 -0.637827 0.687237
-0.542036 -0.336893 -0.76987
0.396962 -0.37446 0.837974
-0.283389 -0.391597 -0.87541
-0.200756 0.820055 0.535917
-0.812936 -0.341807 -0.47149
-0.00639134 0.912823 0.408306
-0.580211 -0.791045 -0.193915
-0.775694 -0.629182 0.0492853
0.0133639 0.864788 -0.501959
-0.816679 0.117767 -0.564948
-0.311978 -0.805315 -0.504121
0.614678 -0.507621 0.603732
-0.22751 0.800664 0.554235
0.697821 0.35935 0.619608
-0.166971 -0.00273466 -0.985958
-0.746388 -0.0918692 0.659139
0.534303 -0.796936 0.281804
0.237748 0.585998 -0.774649
0.498723 -0.197972 0.84385
-0.832437 -0.222537 0.50747
-0.287785 -0.548767 -0.784879
0.219501 0.620391 0.752951
0.389793 -0.732642 0.55794
0.18171 -0.735761 -0.652408
0.15436 -0.774663 -0.613246
0.831965 -0.33208 0.444474
-0.577408 0.790011 -0.206114
0.920388 -0.179905 -0.34716
-0.470877 -0.34712 0.811038
-0.11075 0.586751 -0.802159
-0.982565 -0.183088 -0.0323357
-0.451485 0.695642 -0.558787
-0.460906 -0.744771 0.482579
0.696381 0.458749 -0.551908
-0.102968 -0.783725 -0.612514
0.577685 -0.0379134 0.815379
-0.0648828 0.952624 0.29715
0.989136 -0.144316 0.0279832
-0.814742 -0.380293 0.43769
-0.978912 0.0627757 -0.194399
0.187944 0.237278 0.953088
-0.322642 -0.772852 0.546444
-0.975145 0.0806867 0.206352
0.699978 -0.192531 0.687723
0.0122969 0.883387 0.468484
-0.733676 -0.624055 0.268839
0.298941 -0.656174 0.692871
0.109595 -0.480378 -0.870187
0.0934587 -0.293237 0.951461
0.686338 0.27797 0.672067
-0.383459 -0.597906 -0.703895
-0.289778 -0.955852 -0.048737
0.00178292 0.24536 0.96943
-0.958248 0.20004 -0.204317
-0.572204 -0.406439 -0.712313
0.00564968 -0.767959 0.640474
-0.214057 -0.835404 0.506241
-0.446757 0.0421217 0.893663
-0.14928 -0.135854 0.979418
-0.309984 -0.100246 0.945442
0.135296 -0.400332 -0.906328
-0.607137 0.339869 -0.718244
-0.855793 -0.0929473 0.5089
-0.575015 0.357294 -0.736002
0.553268 0.604649 -0.57297
-0.875028 0.346248 0.338288
-0.309652 -0.19589 -0.930453
0.548789 0.764122 -0.33904
-0.563058 -0.800017 -0.207215
0.68121 -0.401358 0.612262
0.413326 -0.296351 -0.86101
-0.220428 0.218921 0.950518
-0.48852 -0.693179 -0.529953
-0.312497 0.886938 -0.340128
-0.769437 -0.41956 0.481597
-0.14073 0.180213 0.973508
-0.644831 0.386667 -0.659304
0.659275 -0.569846 -0.490543
-0.748504 0.145192 0.64704
-0.350417 -0.508315 0.786653
0.222143 -0.637964 -0.737329
-0.818522 -0.32476 0.47387
0.576001 0.800545 0.165379
0.151663 0.142722 -0.978074
-0.210056 0.966992 0.144234
0.517399 0.758492 0.396217
-0.609509 -0.278208 0.74236
0.645129 -0.685866 0.336745
-0.140826 0.472817 -0.869835
0.612599 0.627285 -0.48087
-0.829436 -0.069587 -0.554251
-0.0627855 -0.336133 -0.93972
0.410995 -0.276703 0.86863
0.0827721 0.264429 -0.960847
0.89463 0.117049 -0.431203
-0.0929817 0.49594 -0.863365
-0.290987 0.951485 0.10001
0.409637 0.569129 -0.712944
0.331682 0.217599 0.917953
0.41986 0.812207 0.405014
0.112125 0.0719005 0.99109
-0.0373421 -0.7627 0.645673
0.384457 -0.342152 0.857394
-0.560707 0.271526 0.782228
-0.543381 -0.409793 -0.732671
-0.333711 -0.0274193 -0.942277
0.374692 -0.861628 0.342349
0.829038 0.364541 -0.424035
0.787115 0.220974 -0.575865
0.33488 -0.560596 0.757356
0.722372 0.580759 -0.375363
0.59187 0.380519 -0.71056
0.758563 0.104927 0.643097
0.0605937 -0.859365 0.507761
-0.01376 0.301497 0.953368
-0.318606 -0.70128 0.637728
0.763092 0.464584 -0.449279
0.777932 0.625691 0.0577228
-0.498039 -0.753081 -0.429914
-0.334411 0.740152 0.583391
-0.687535 0.680067 -0.254567
0.323586 0.382335 -0.865513
-0.555406 0.807949 -0.196834
0.557147 -0.38828 -0.734048
-0.843157 -0.522471 -0.126924
-0.109961 -0.758086 0.642817
-0.675603 0.536311 -0.505896
-0.831499 0.00792019 -0.55547
0.661182 0.484844 -0.572507
-0.80495 0.583929 0.105277
-0.680393 -0.712974 0.169508
0.376197 0.516504 0.76922
0.42084 0.133474 -0.897261
-0.88802 0.421332 -0.184118
-0.56078 -0.587085 -0.583829
0.823178 0.163259 0.543805
-0.154361 0.289984 0.944501
0.192558 0.652156 -0.733221
0.362237 -0.748632 0.555279
0.523489 -0.466977 -0.712665
0.13732 -0.775948 0.615669
-0.697071 -0.635255 0.332481
0.236635 0.218346 0.946746
0.266379 -0.248968 -0.931159
0.0330267 -0.258441 0.965462
0.0109236 0.258722 0.96589
0.747013 0.227041 -0.624839
0.845625 -0.533636 0.0122998
0.524798 -0.752536 0.39784
0.458179 0.439578 -0.772556
0.72663 -0.301876 0.617154
-0.224355 0.253048 -0.94108
0.452427 -0.801254 -0.391537
0.845816 0.508847 0.16022
0.0272652 0.898289 -0.438559
-0.775274 0.425122 -0.467141
0.369944 0.24984 -0.89483
-0.778228 -0.437461 -0.450542
0.517232 -0.455572 -0.724517
-0.825983 0.0756012 -0.558602
0.698904 0.387004 -0.601466
-0.547672 -0.562977 0.61896
-0.291638 0.184279 0.93861
0.0667579 -0.196833 -0.978162
0.888027 -0.332915 -0.317137
0.269176 -0.161995 -0.949369
-0.0118557 -0.451303 -0.892292
-0.397844 0.842204 0.363886
-0.275364 0.23688 -0.931699
-0.644382 0.500436 0.578218
0.0805732 -0.922457 0.3776
0.063536 -0.192129 0.979311
-0.855329 0.154663 -0.494461
0.93992 0.00413162 -0.341369
0.439614 0.320964 -0.838881
0.105556 0.986903 -0.121983
0.126476 -0.21797 0.967726
0.217469 0.599257 -0.770453
-0.461928 0.559444 -0.688218
-0.117679 -0.780131 -0.614448
0.143128 -0.391624 0.908925
-0.0511144 0.617014 0.785291
-0.718711 0.219008 0.659917
-0.117503 -0.623161 -0.773216
0.934052 0.159003 0.319788
0.557842 -0.0242606 0.829593
-0.93084 -0.205062 0.302468
-0.0235931 0.315595 -0.948601
-0.590039 0.257862 0.765089
-0.721613 0.546431 -0.425074
-0.423409 -0.335332 0.841592
0.755804 0.494809 -0.428863
-0.773777 -0.633178 -0.0188318
0.0487527 0.479935 0.875948
0.651103 -0.458568 0.604798
0.464193 -0.376523 0.80172
0.24086 -0.297208 0.923934
0.376879 -0.737557 -0.560331
0.805373 0.010397 -0.592677
-0.0372558 -0.712732 0.700446
-0.291307 -0.9263 -0.238973
-0.855626 -0.102653 -0.507313
0.294874 -0.481041 -0.82562
0.808249 -0.457144 -0.37115
-0.405559 -0.0887806 0.909747
0.488059 -0.739221 -0.464059
0.685667 0.193121 0.70183
-0.743061 -0.404332 0.533269
-0.941207 -0.186893 0.281425
-0.0598712 -0.677271 -0.733294
-0.589919 0.044945 0.80621
-0.62685 0.712109 0.316164
-0.376627 0.377487 -0.845964
-0.0643949 -0.161636 -0.984747
0.00133115 0.64432 0.764755
-0.889479 0.324166 0.322092
-0.617257 -0.688534 -0.380676
0.188916 0.123422 -0.974206
0.4683 0.350282 0.81117
0.154798 -0.211642 -0.96501
0.701946 0.0233772 0.711846
0.736528 -0.121904 -0.665331
-0.689762 0.516742 -0.507154
-0.59745 0.161613 -0.785452
0.599834 -0.07257 -0.796827
0.424194 0.764728 0.485026
0.460491 -0.522599 0.717522
-0.257307 -0.325915 0.90971
0.648305 0.557017 -0.51907
0.560232 0.588819 -0.582609
-0.34115 0.0725744 0.937203
-0.342093 0.796172 -0.499082
-0.92611 -0.130156 -0.35409
0.315388 -0.491605 0.811699
0.647799 -0.308448 -0.696575
0.818835 0.381105 -0.429265
-0.720317 -0.358393 -0.593884
0.66735 0.00895754 -0.744691
-0.65021 0.0192934 0.759509
-0.386042 -0.0415933 -0.921543
0.322483 -0.761514 0.562228
0.110042 0.134777 0.984747
-0.31795 -0.00457426 0.948097
-0.816174 -0.519504 0.252936
-0.799442 0.296246 -0.522619
0.447493 0.786287 0.426031
-0.480645 0.832331 0.276054
0.839072 -0.335589 -0.428181
0.123745 -0.984782 0.122033
0.635113 0.730644 -0.250581