# vtk DataFile Version 3.0.
comment
ASCII

DATASET POLYDATA
POINTS 3617 double
0.766098 1.65593 1.01109
1.33852 1.54071 0.409964
0.301156 1.68149 0.26727
1.71057 0.586799 0.451735
0.161535 1.52352 0.905991
1.54753 0.0655603 0.740019
1.11557 0.907712 0.160165
0.148738 0.274816 0.733256
1.2323 1.6258 0.487083
0.500902 0.352191 0.489028
0.975594 0.0493623 0.217354
1.58949 0.912099 0.984941
1.10387 0.429745 0.394253
0.154408 1.10385 0.12829
0.90192 1.70501 0.628639
1.06023 1.47005 0.353548
1.03608 1.52672 0.221633
0.681461 0.459384 0.73604
1.27951 1.06474 0.494525
0.0358393 0.614941 0.245382
1.31677 1.67357 0.643552
1.69752 0.680956 0.187933
0.476138 0.0683734 0.187051
1.21584 1.00439 1.01511
0.442065 0.136482 0.635823
1.62722 0.528696 0.150227
1.40093 1.56776 1.03527
0.731171 0.740878 0.166783
1.30352 0.0704152 0.279163
0.616629 1.41222 0.412948
1.28216 1.40697 0.556895
1.11907 0.860655 0.549875
0.499796 1.10193 0.515858
1.19435 0.102737 0.21693
0.122778 1.56348 0.257714
1.24001 0.991628 0.687546
1.22956 1.67959 0.939834
0.841641 0.635389 0.517699
1.64878 0.640251 0.673682
1.07104 0.729907 0.457853
1.55431 1.55554 0.227778
1.22356 0.975991 0.370735
0.879083 1.13911 0.530492
0.724878 0.987739 0.532403
1.55772 0.823935 0.595655
0.747587 1.40604 0.727727
0.590815 1.63267 0.646538
1.34744 0.81489 0.452339
0.200512 1.51186 0.815746
0.894436 0.000939825 0.914147
1.60864 1.50814 0.429505
1.52714 1.19998 0.324689
1.14219 0.663921 0.597168
1.50426 1.3652 0.391109
1.08287 0.11679 0.089963
0.577233 0.315723 0.664772
0.362867 0.305627 0.232193
0.170668 0.0854371 0.0406011
0.341347 1.2771 0.197366
1.06763 0.0704557 0.237089
0.697742 0.543206 0.357709
1.17475 0.121755 0.534888
1.31835 1.36821 0.633278
0.133255 0.653872 0.386753
1.2856 0.329333 0.432337
1.66617 0.982157 0.498473
0.958504 1.32822 0.291699
0.524795 0.956743 0.548441
0.698718 1.12598 0.519759
0.124815 1.43027 0.418581
1.62471 0.746872 0.350805
0.837608 0.569396 0.892434
0.132664 1.2708 0.00872466
0.618198 0.987454 0.478569
1.52801 1.5852 0.332695
1.04085 0.621012 0.964749
0.0676469 1.64254 0.341324
1.70996 0.0894413 0.518817
0.618411 1.33847 0.358189
0.165646 1.62247 0.798577
1.67257 0.358144 0.0100179
0.23047 0.65403 0.558675
0.309061 1.29498 0.524028
0.0836014 0.514041 0.741142
0.326424 0.361259 0.306357
1.45082 0.576892 0.242737
0.469959 0.39852 0.367677
0.513892 1.02828 0.369104
1.32246 0.0162292 0.410341
0.705336 1.32968 0.660204
1.53197 0.595168 0.00310171
1.72462 1.02476 0.580542
1.5781 0.0351488 0.941607
1.1545 1.502 1.04283
1.50075 0.878846 1.02252
0.356273 1.39499 0.0373338
0.407455 1.71315 0.620482
0.769948 0.978133 0.236135
0.899392 0.071157 0.0314994
0.656926 0.39489 0.884597
0.637317 1.22226 0.592922
1.05032 1.64819 0.11694
0.638074 0.966973 0.727295
0.771149 0.483585 0.648637
0.146703 0.216502 0.854401
0.0955333 1.50938 0.326034
1.12865 0.178271 0.151654
0.350555 0.924302 0.397994
0.456286 0.699073 0.279448
1.04131 1.23707 0.220117
0.828604 1.70712 0.425755
1.61418 0.585824 0.604791
0.521601 0.350037 0.581515
0.00902565 1.49915 0.626868
1.15588 1.43623 0.0446769
0.350781 0.729007 0.763335
0.845828 0.0924748 0.20066
1.08596 0.762032 0.560351
0.0246687 0.773847 0.353887
1.71175 0.488127 1.03672
1.29925 0.390093 0.815463
1.6847 0.746894 0.974086
1.5278 1.09805 0.31712
0.262723 0.763361 0.807827
0.482694 0.0238728 0.26919
0.847163 1.30233 0.555212
0.820368 1.63278 0.157599
1.43279 0.532189 0.0176619
0.523963 1.61097 0.579363
0.91225 0.552355 0.83162
0.70224 0.0283108 0.436548
0.219915 0.353318 0.457755
0.219665 0.0270792 0.335062
0.843194 0.379741 0.559055
0.0368792 0.195221 0.399127
1.27794 0.56391 0.318307
1.66438 0.412958 0.214759
1.48275 0.192091 0.214459
0.308593 0.22852 0.0906213
1.15513 0.780934 0.293096
1.64167 0.809388 0.184849
0.776565 0.800709 0.727297
1.68476 1.32452 0.173492
0.671465 1.71773 0.609177
0.221775 1.25163 0.908748
1.64838 0.351248 0.821539
0.271797 0.0472753 0.546466
1.59495 0.205544 0.227758
0.994725 1.59909 0.846566
0.35567 1.62767 0.970433
1.65917 1.2041 0.549529
0.0237193 1.38713 0.968441
1.5601 0.991726 0.396812
1.40077 0.44705 0.03029
0.617981 1.36896 0.250297
0.292253 0.746614 0.253033
0.894649 0.0154635 0.774728
0.364741 0.0147594 0.467794
0.153119 0.226329 0.116043
0.186976 0.503362 0.599941
0.614769 1.64492 0.442809
0.390978 0.434246 0.736586
0.550856 0.265805 0.499786
0.685623 0.644912 0.130058
1.14599 1.37599 0.540902
1.55382 1.38001 0.795237
0.0878034 0.619856 0.319577
1.46405 1.74128 0.325823
1.07432 0.319482 0.716258
1.17563 0.450421 0.781502
0.761583 0.577528 0.154286
0.899017 0.504504 0.954857
0.879027 1.59196 0.563022
0.090254 1.74698 3.83234e-05
1.02615 0.31917 0.240005
0.236872 0.735615 0.167062
0.330248 0.735492 0.328108
0.108453 1.18484 0.492231
0.381699 1.29553 0.7566
0.39792 0.319004 0.902738
0.626421 1.08253 0.444543
0.312148 1.67227 0.0381819
0.454972 1.0019 0.880396
1.52956 1.50816 0.449047
0.926015 0.744989 0.874809
0.498945 0.803645 0.453949
0.0271195 0.0231932 0.589192
0.696048 1.70087 0.238068
0.822268 0.426116 0.804398
0.146695 1.14181 0.569707
0.942401 0.934298 0.94639
1.20114 0.608459 0.373542
1.02261 1.41306 0.110295
0.527305 1.49867 0.0555983
0.483272 0.840733 0.702297
1.11808 1.23419 0.937965
1.3511 1.29559 0.697465
0.544725 1.15361 0.57742
0.199998 1.35177 0.655505
1.08121 0.458281 0.530307
0.0914542 0.767544 0.495207
0.336851 0.0681689 0.161418
0.71254 0.0760121 0.835279
0.3672 1.1067 0.117641
1.52687 1.27489 0.0445771
1.22005 0.875394 0.647466
1.3299 0.752696 0.727628
1.18765 1.34859 0.447776
0.298506 0.263655 0.759645
0.638554 0.799342 0.439635
1.05921 1.00579 0.79712
1.62585 0.48751 0.382042
1.41663 1.1098 0.364365
0.342339 1.72428 0.526037
1.62995 0.52928 0.795634
1.67293 1.46214 0.396621
0.834086 0.604165 0.0144722
0.426906 1.37866 0.443473
0.908795 1.56752 0.69753
1.55496 1.6015 0.435008
0.716296 0.771233 1.01628
0.154196 0.786723 0.0244988
1.29728 0.706549 0.00615619
0.290951 0.552075 0.783663
1.24612 0.278313 0.0433883
0.548051 0.548892 0.13775
0.951983 0.580665 0.566699
0.0605718 0.974878 0.97404
1.17896 0.256318 0.790302
1.62072 0.0806877 0.33142
1.13503 0.713252 0.143339
1.48268 0.450931 0.484003
1.12405 1.42503 0.420091
0.951491 1.50611 0.187998
1.62406 0.961399 0.834706
1.48273 0.438829 0.746987
0.379505 0.962731 0.497151
1.67841 0.247076 0.419512
0.554988 0.250383 0.393649
0.676242 1.41314 0.324167
0.503396 1.75716 0.0646498
0.436941 0.429987 0.511025
0.789775 0.96266 0.963379
0.833417 0.222123 0.624262
1.70923 1.57234 0.0685727
0.782566 0.489319 0.118062
0.367989 1.7312 0.980262
0.945928 1.15259 0.353222
1.58889 1.72823 0.655087
0.778695 0.310552 0.273424
0.0308155 1.2932 0.375909
0.671896 1.17109 0.400145
1.70277 0.449283 0.555321
1.09004 0.341181 0.538643
1.16281 1.18221 0.627706
0.734448 1.39032 0.502875
0.495735 0.458236 0.803647
1.69596 1.43469 0.289717
1.1553 0.25319 0.109279
1.61912 1.29592 0.262493
0.851809 0.0247105 0.483268
0.753977 1.16847 0.162821
0.130378 0.826961 0.269335
0.633748 1.51529 0.39842
1.23141 0.776112 1.03739
0.857061 0.83653 0.027155
0.124495 1.66639 0.0649219
1.51909 0.596243 0.145402
1.36769 1.72957 0.121246
0.572568 1.17857 0.41551
0.749961 0.923275 0.651637
1.54029 1.03139 0.651566
0.764648 1.72563 0.939776
0.907093 1.38248 1.0495
0.952438 0.133829 0.0864682
1.6447 1.64259 0.276656
0.514986 0.804834 0.0311122
1.43512 0.831729 0.469063
1.60346 0.469417 0.0965748
0.275641 1.35045 0.269707
1.54628 1.08612 0.122155
1.68255 0.0585073 0.374157
0.878951 0.170215 0.297899
0.917057 1.50456 0.532269
1.42908 0.430973 0.660764
0.377042 0.29467 0.0022276
1.18228 1.42697 0.186212
0.494627 1.05233 0.806905
0.717923 0.725649 0.0570638
1.20152 1.21143 0.920008
1.57337 0.0761039 0.83215
0.0652201 0.0351962 0.668667
0.742806 1.23937 0.0112425
0.984673 0.272105 0.972736
0.498759 1.20694 0.493432
1.725 0.913719 0.283527
0.706808 1.3179 0.239852
0.7029 0.96444 0.412934
1.31816 1.49284 0.0632807
1.07777 0.684557 0.551603
0.456368 0.978015 0.0448743
0.294891 0.197517 0.645433
1.41164 0.389956 0.0976857
0.916322 1.36326 0.39379
1.06072 0.213515 0.0666077
1.64152 0.387757 0.634865
1.00935 0.360024 0.487289
1.1007 0.955842 0.0871858
0.364785 0.550443 0.490821
0.686108 1.27854 0.746772
0.4208 0.785958 0.403005
1.43639 0.0408908 0.615121
0.722696 1.10619 0.886312
0.225042 1.35063 0.965061
1.2762 0.134351 0.595742
0.711892 0.0475074 0.617283
1.48874 1.3166 0.129664
0.525875 1.36726 0.416479
0.70267 0.337009 0.831029
1.02724 1.17441 0.74327
0.914867 0.53804 0.298942
0.360115 0.0757269 0.512241
1.13974 1.33904 0.890385
0.562579 1.67996 0.942898
0.205539 0.749855 0.277657
0.112103 1.28042 0.622867
0.686967 0.625001 0.478592
0.618548 0.632188 0.359247
1.03589 1.42595 0.791314
1.23497 0.347478 0.902233
0.0371433 0.765132 0.122319
0.784326 1.42625 0.976732
1.28483 0.234762 0.118963
0.912914 0.797624 0.592186
0.42669 1.01888 0.357232
1.30038 0.885843 0.867184
0.92562 1.2946 0.513324
1.09795 0.953878 0.727682
0.793095 1.22307 0.287169
1.71978 1.72073 0.673776
0.698621 0.4067 0.0111728
0.124218 0.467911 0.540208
1.48975 1.25117 0.240021
1.03203 1.36649 0.225132
1.07697 1.57564 0.581199
0.975057 0.208451 0.122656
0.899737 1.51651 0.0624411
1.26107 1.47716 0.376747
0.826873 1.29253 0.790826
1.6928 0.889581 0.20872
1.00748 1.01936 0.511222
0.953078 0.282976 0.167547
0.734321 0.665581 0.769328
0.54557 0.0574867 0.700296
0.207563 0.0587902 0.142125
0.0208243 0.53236 0.310673
0.205624 0.777992 0.743415
0.914188 0.70929 0.680872
1.59851 0.293627 0.0490147
0.239467 1.01666 0.639085
0.124878 0.140409 0.881907
1.44284 0.540248 0.63471
0.0948034 1.39623 0.628134
0.603207 0.929462 0.782501
0.320109 0.0397336 0.306968
0.838799 0.0374414 0.389681
0.653713 0.267643 0.169092
0.0596973 0.182435 0.91849
0.73792 0.582533 0.0657848
1.54919 1.09639 0.725579
0.994451 0.458917 0.472737
1.16579 1.25404 0.685218
0.299969 0.544185 0.679833
0.358243 1.17137 0.876502
0.795363 1.23716 0.126517
1.39396 0.0957635 0.31411
1.51567 1.57292 0.026584
0.537298 0.369856 0.760805
0.622068 0.551581 0.806818
[...]
POINT_DATA 3617
SCALARS radius double 1
LOOKUP_TABLE default
0.0462707
0.0470822
0.03527
0.0441421
0.0413515
0.0588523
0.0440981
0.0396556
0.0552376
0.0366891
0.0393074
0.0556824
0.0361536
0.0417936
0.057026
0.053188
0.0420587
0.0400827
0.0464377
0.0482323
0.0607636
0.0571326
0.0373512
0.0375009
0.0503165
0.044322
0.0443702
0.0555133
0.0535827
0.0497721
0.0416976
0.0414437
0.0433238
0.0554757
0.0426016
0.0490154
0.0581919
0.06246
0.041082
0.0636528
0.0637776
0.0360061
0.0382386
0.0613364
0.0568366
0.0579586
0.0591602
0.0504927
0.0447239
0.0450968
0.0373152
0.057738
0.0367605
0.0388489
0.0402826
0.0477942
0.0628387
0.0512625
0.0587183
0.0385562
0.0634377
0.0620477
0.0476323
0.0448297
0.0475337
0.0552603
0.0579195
0.0624489
0.0430043
0.050888
0.0458595
0.0549282
0.0450265
0.0582938
0.0498924
0.0533869
0.037301
0.064056
0.0425667
0.0470429
0.0482429
0.0466956
0.051823
0.0581935
0.0375663
0.0624443
0.0357108
0.0430623
0.0524047
0.0524139
0.0546749
0.0388418
0.0408126
0.0402723
0.0370275
0.0412443
0.0581349
0.062935
0.0568713
0.0531504
0.0641833
0.0361877
0.0350343
0.0522309
0.0358451
0.0371105
0.0406355
0.0467102
0.0501395
0.0558381
0.0561568
0.0518935
0.0581428
0.0360665
0.045252
0.0622221
0.0484571
0.0357745
0.0456615
0.0494126
0.0629726
0.0462383
0.0448304
0.0386365
0.0481353
0.0405342
0.0404303
0.0458541
0.0385764
0.0433067
0.0383676
0.0475001
0.0377009
0.0437116
0.0500332
0.0545498
0.037667
0.0526315
0.039895
0.0362862
0.061708
0.0622594
0.0612975
0.0464706
0.0479122
0.0443684
0.0572239
0.0574932
0.056322
0.0614018
0.0546656
0.0357328
0.0420439
0.0444992
0.0459208
0.0400862
0.0479791
0.036767
0.0408037
0.0446123
0.050611
0.0623968
0.0631083
0.0571555
0.0572011
0.0524604
0.043385
0.0382454
0.0416331
0.0441156
0.0462156
0.0541608
0.0573249
0.0601883
0.0608244
0.0554357
0.0442187
0.0517689
0.0554075
0.0621821
0.0434822
0.0641771
0.0537213
0.0403588
0.0592371
0.0432409
0.0381977
0.0622348
0.0469995
0.0457438
0.0576037
0.0444228
0.0396174
0.0360175
0.0421756
0.035167
0.0550186
0.0489989
0.0591487
0.0600495
0.0363363
0.0630947
0.0427262
0.057304
0.0350275
0.0357128
0.063542
0.0495709
0.035349
0.0630301
0.0563076
0.059231
0.0489117
0.0370506
0.0577701
0.0379753
0.0567886
0.0382391
0.0474889
0.0578018
0.0476568
0.0520194
0.056329
0.043553
0.0438054
0.047649
0.0351352
0.0478711
0.0380892
0.0354157
0.0516995
0.0411743
0.0500004
0.0415058
0.0462749
0.0456813
0.0554925
0.0548261
0.0452209
0.0581657
0.0405019
0.0560391
0.0353413
0.0434203
0.0391307
0.0483538
0.0432386
0.0433494
0.0483693
0.0550588
0.0351176
0.0427107
0.0382758
0.0580189
0.0540412
0.0387409
0.0645075
0.0610848
0.0494804
0.0532261
0.0512552
0.0467863
0.0524529
0.0559116
0.0420767
0.0444092
0.0475018
0.0585199
0.0647898
0.0351223
0.0644786
0.0442322
0.052325
0.0468327
0.0423768
0.0459733
0.0373646
0.0406301
0.0394022
0.0637479
0.0351593
0.0429586
0.0632293
0.0387832
0.0570572
0.0609622
0.0447699
0.0396145
0.0563949
0.053773
0.0354087
0.0509394
0.0561848
0.0456024
0.0613581
0.0485235
0.0456717
0.0396428
0.0524712
0.0410793
0.0420947
0.0545179
0.044445
0.0584123
0.0618035
0.054032
0.039819
0.044658
0.0568408
0.0506954
0.0528957
0.041571
0.0377306
0.0446997
0.0574952
0.0435126
0.0604446
0.0519636
0.0381663
0.0591975
0.0570879
0.0352805
0.0432651
0.0588404
0.0503195
0.0588273
0.0560889
0.0527516
0.0444578
0.0516112
0.0642022
0.046961
0.0455146
0.036294
0.0455158
0.0530397
0.0478405
0.0358131
0.0423065
0.0524029
0.048255
0.0358163
0.0483831
0.0488165
0.054712
0.040027
0.0536105
0.0424621
0.0399217
0.0350668
0.0578307
0.0490975
0.0546818
0.0449934
0.0350773
0.058205
0.0472085
0.055043
0.0549464
0.0425442
0.0469606
0.0405227
0.0514329
0.0404654
0.0525889
0.0447968
0.0449031
0.0363935
0.0456497
0.0548673
0.0444807
0.0387358
0.0358734
0.0456866
0.0414483
0.0470739
0.0474279
0.0362847
0.045363
0.0592783
0.043144
0.0402991
0.0621717
0.044066
0.0415622
0.0400499
0.0408986
0.0499642
0.041642
0.0529104
0.0530438
0.0369428
0.0633948
0.0585324
0.0454377
0.0484381
0.0549106
0.0368285
0.0436235
0.0375964
0.0525503
0.0388476
0.0372648
0.0441542
0.061649
0.0471944
0.0594784
0.0513685
0.0435652
0.0499938
0.0585269
0.0515365
0.0546779
0.047237
0.0499973
0.0425888
0.0538625
0.0420002
0.0612845
0.0454974
0.0447698
0.0614694
0.0441981
0.0354514
0.0427294
0.0372576
0.0497559
0.0545744
0.0363136
0.0432065
0.0556917
0.0375736
0.0580005
0.0490041
0.0477589
0.0466745
0.0433044
0.040873
0.0495358
0.0536545
0.0592995
0.0361551
0.061113
0.048959
0.0553464
0.0646755
0.0423253
0.0382294
0.0495903
0.0611409
0.0414756
0.0605351
0.0596749
0.057423
0.0591855
0.0638909
0.0469973
0.0634742
0.0448291
0.0428892
0.0558363
0.0460003
0.0411186
0.0380015
0.056327
0.0624615
0.0543582
0.0521804
0.0635851
0.0594771
0.0632411
0.0521896
0.0482584
0.0357726
0.0578301
0.0637841
0.051955
0.0472161
0.0352813
0.0360564
0.046493
0.0369811
0.0481956
0.0469395
0.0611252
0.0431303
0.0446698
0.0550854
0.0511578
0.0450219
0.0381214
0.0483374
0.0606127
0.0606265
0.0578777
0.0525106
0.0410525
0.0431255
0.0396938
0.0638996
0.0507753
0.0507406
0.0441229
0.052394
0.0421157
0.0496685
0.0441457
0.0357394
0.0550078
0.0354011
0.0649081
0.0375763
0.036562
0.0521018
0.060505
0.0495925
0.054656
0.0613623
0.039264
0.0620991
0.0597191
0.0600845
0.0617161
0.036684
0.0600006
0.0455374
0.0509263
0.0598653
0.0542767
0.0394017
0.0374091
0.0438892
0.0627769
0.0402331
0.0390395
0.0426774
0.0541933
0.0546536
0.0515322
0.036096
0.0554556
0.0395859
0.0427935
0.0492284
0.0610705
0.0439684
0.0472287
0.0639326
0.0488144
0.0593636
0.0450959
0.0588597
0.0624028
0.0386624
0.0589063
0.0578972
0.045626
0.0429199
0.0557212
0.0589088
0.0415541
0.0543762
0.0433225
0.0557569
0.0603212
0.0522706
0.0441448
0.0394364
0.0545341
0.0537186
0.0600873
0.0493569
0.0584707
0.0429437
0.0559667
0.0562216
0.0363906
0.0591282
0.0450185
0.0636059
0.0477098
0.0444591
0.0441031
0.0470497
0.053694
0.0470373
0.0469949
0.0487678
0.0571105
0.0607066
0.0525918
0.0556441
0.0438818
0.0433089
0.0439718
0.042193
0.0419241
0.056868
0.0363374
0.0455895
0.0350103
0.0396956
0.0592803
0.0470381
0.0500181
0.0439315
0.0354731
0.0465765
0.041879
0.0432347
0.0433876
0.0547979
0.0405495
0.0646664
0.0570962
0.0353265
0.036607
0.0396037
0.0633205
0.0420134
0.0640735
0.0559171
0.0360445
0.0606157
0.0389949
0.0423904
0.0589093
0.0452066
0.0591176
0.0576908
0.0508425
0.0403719
0.0516599
0.0495502
0.0380037
0.0450399
0.038135
0.0382527
0.0575821
0.0466843
0.04947
0.0613011
0.0584215
0.0361729
0.0481771
0.044696
0.0508047
0.0489047
0.0494907
0.0496569
0.0578685
0.0350486
0.0564742
0.0510427
0.0468119
0.0627816
0.041904
0.0416714
0.0492925
0.054147
0.0504367
0.036867
0.0605509
0.044755
0.04655
0.0572021
0.0489801
0.0401277
0.0498273
0.0585633
0.0492631
0.0507386
0.0515478
0.0481902
0.0565469
0.0566319
0.0404101
0.0388357
0.0397734
0.0362871
0.0413537
0.0555382
0.0608717
0.0602479
0.0498846
0.0483032
0.0518623
0.0423093
0.0544895
0.0409902
0.050819
0.0378381
0.0407236
0.0549009
0.0447352
0.0610459
0.0425948
0.0569235
0.0639698
0.0374422
0.0615228
0.0454283
0.0445058
0.0622019
0.04047
0.0359413
0.0482818
0.0441364
0.0574759
0.0551831
0.0385425
0.0416112
0.0584815
0.04999
0.0511938
0.0528125
0.0363186
0.0500192
0.0524067
0.0548714
0.0381913
0.052121
0.0540611
0.0494135
0.0385035
0.0369535
0.0464753
0.0395198
0.050897
0.0564097
0.0383187
0.0372705
0.0584004
0.0451968
0.0383093
0.0385449
0.0416424
0.0395122
0.0537263
0.0434281
0.0385872
0.0647184
0.0553814
0.0355834
0.0370165
0.0546977
0.0357319
0.0592103
0.0642171
0.0642735
0.0426867
0.0512559
0.0585395
0.0587791
0.0632365
0.0436464
0.0511482
0.0616947
0.0449728
0.0511166
0.0505032
0.0628514
0.03687
0.0559079
0.0484098
0.0475098
0.0489495
0.0393645
0.0514019
0.0363662
0.0584564
0.05723
0.0586724
0.0595125
0.0406824
0.0411664
0.0485831
0.0546883
0.0364589
0.0468562
0.037653
0.0649033
0.0581018
0.0354672
0.0424164
0.0488863
0.0599333
0.0552251
0.0471616
0.0429513
0.0383414
0.0467843
0.0388716
0.0384504
0.0486949
0.0514984
0.0606288
0.0583095
0.0351521
0.0445214
0.0551219
0.0560733
0.0564024
0.0361089
0.056262
0.0516072
0.0525778
0.053822
0.0454044
0.0390224
0.0481096
0.0621906
0.0356814
0.0369541
0.0385813
0.042058
0.0376355
0.0428995
0.0620944
0.0388546
0.0640472
0.0367794
0.0355533
0.043496
0.0554201
0.0474167
0.0647487
0.0638161
0.0396856
0.0619252
0.0514439
0.0648826
0.0448045
0.0364984
0.0352287
0.05935
0.0474285
0.0592706
0.0429534
0.0550767
0.054079
0.0373825
0.0396869
0.0649581
0.0614646
0.0497079
0.0442158
0.047347
0.0473325
0.0475179
0.0372734
0.0441069
0.0537072
0.0362701
0.0441473
0.0383111
0.0368597
0.0372409
0.0419484
0.0600197
0.0642929
0.0497913
0.048676
0.0581924
0.0421108
0.0383144
0.0512612
0.0588506
0.0534994
0.0636185
0.0432465
0.0465464
0.0470567
0.0593019
0.0640171
0.039514
0.0500372
0.0526411
0.0561007
0.0565102
0.0525835
0.0536374
0.0440191
0.0400082
0.0481157
0.0351145
0.0515774
0.0457272
0.0365112
0.0514251
0.0436244
0.0579912
0.0441438
0.0581608
0.0363447
0.0368957
0.0406336
0.0516431
0.0592474
0.0358403
0.0388494
0.0567509
0.0591444
0.0628113
0.0359567
0.0485094
0.0430162
0.0435586
0.0424817
0.0414389
0.054299
0.0403889
0.0554399
0.0634402
0.0501097
0.0465507
0.0512845
0.0525037
0.0418932
0.0537196
0.0593117
0.0447263
0.0453681
0.0564305
0.0607056
0.0410886
0.0401693
0.0557997
0.0643552
0.0395219
0.0448707
0.054022
0.0467032
0.0366717
0.0584826
0.0635874
0.0521295
0.0369164
0.0616683
0.064021
0.0521905
0.0460466
0.0455664
0.0481624
0.0624435
0.0442924
0.0417235
0.0625263
0.0607435
0.0370695
0.0417673
0.0396695
0.040745
0.0557712
0.0412076
0.044021
0.0418291
0.0514041
0.0529554
0.0382897
0.04413
0.0494405
0.0500854
0.0440542
0.0471568
0.0491751
0.0515842
0.0406092
0.0448386
0.0415463
0.052784
0.0435024
0.0477583
0.0521988
0.0493428
0.0421533
0.0470084
0.044079
0.0532381
0.0634179
0.0408424
0.036071
0.0419242
0.0441437
0.0443348
0.0606697
0.0627355
0.0447999
0.0645597
0.0641853
0.0370161
0.0492088
0.0466498
0.0365607
0.0358515
0.0413842
0.0525831
0.05719
0.0564696
0.0351721
0.0389114
0.0635461
0.0636641
0.0511896
0.0497158
0.0580965
0.0467493
0.0447492
0.0362625
0.0556443
0.0359479
0.050304
0.0586579
0.0491673
0.0508299
0.0504558
0.0380361
0.0424999
0.0527324
0.0581406
0.0605444
0.0377536
0.0508032
0.036641
0.049493
0.0568936
0.0628365
0.0425369
0.0637451
0.0471741
0.0425919
0.0602737
0.0444024
0.0617668
0.0408529
0.0555341
0.0432834
0.0527011
0.0490336
0.03932
0.0384823
0.0384268
0.0510354
0.0594893
0.0496784
0.0487473
0.0482944
0.0648408
0.0439738
0.0424241
0.0378919
0.0494749
0.0395978
0.0518533
0.0363136
0.0476042
0.0573522
0.037667
0.0373419
0.0532994
0.0393704
0.0483901
0.0461571
0.0606056
0.0356472
0.0352544
0.0367374
0.0425733
0.0516237
0.0613933
0.0458331
0.0403613
0.0381905
0.0428618
0.0466975
0.0462648
0.0444745
0.0502844
0.047736
0.0385162
0.0472951
0.0580283
0.0580555
0.0588941
0.0404183
0.0476948
0.0589592
0.0439978
0.0559322
0.047489
0.0435075
0.0410605
0.0377445
0.0632894
0.0358244
0.0506855
0.037898
0.0634363
0.0408599
0.0437107
0.0420959
0.0365579
0.0365368
0.0583901
0.0512872
0.05169
0.046436
0.0421283
0.036191
0.0369795
0.039574
0.0469352
0.0503007
0.0590881
0.0617849
0.039411
0.0418284
0.0384466
0.0389413
0.0571341
0.0495884
0.0546923
0.0442188
0.0429939
0.0612126
0.0591068
0.0496553
0.056841
0.0519643
0.0461784
0.0491723
0.051685
0.0487016
0.0441329
0.0554729
0.0368679
0.0471065
0.0482038
0.0561014
0.0392842
0.0593842
0.0508753
0.0573569
0.0528839
0.0518067
0.0421239
0.0523758
0.0507651
0.0405385
0.0555844
0.0443172
0.0604536
0.0479661
0.0390395
0.0482452
0.0381387
0.0608522
0.0377828
0.0430772
0.0634328
0.0579333
0.0546933
0.0565302
0.0598403
0.0543684
0.0459541
0.0423292
0.0471272
0.0648652
0.0359032
0.0649442
0.0366342
0.0558145
0.0455985
0.0596105
0.0570197
0.039312
0.0473122
0.0361213
0.0591518
0.050527
0.0437736
0.0384755
0.0572505
0.0642433
0.0371884
0.0371691
0.0473662
0.0362467
0.0527963
0.0408723
0.0391936
0.0630264
0.0445937
0.0372039
0.0569469
0.0549276
0.0475603
0.0568427
0.0619636
0.047792
0.0519267
0.0422115
0.0434913
0.0509854
0.0592476
0.0615569
0.037001
0.0512642
0.0535948
0.0471409
0.0506125
0.0431475
0.0503355
0.0480575
0.0415203
0.0443114
0.0403468
0.0645908
0.0458055
0.0644376
0.0461841
0.0420528
0.0466077
0.0503925
0.0448312
0.037233
0.0392432
0.0361375
0.0514241
0.0366591
0.0531977
0.0448473
0.0527486
0.0366006
0.0475091
0.0497597
0.0443533
0.0473222
0.0454324
0.0496446
0.051439
0.039884
0.0591822
0.0527317
0.0459466
0.0616032
0.0369877
0.0517414
0.0460305
0.063149
0.0373004
0.0362368
0.0519356
0.048555
0.0628929
0.0390418
0.0599411
0.0499685
0.0440222
0.050024
0.0648799
0.0590758
0.0407656
0.043182
0.038013
0.0639879
0.0362498
0.0601064
0.0623504
0.0516001
0.039356
0.0365057
0.0616835
0.0363393
0.0358629
0.0473415
0.0444142
0.0538711
0.0414008
0.0614976
0.0383572
0.0395307
0.0525474
0.0450219
0.0427985
0.0395562
0.0556571
0.0493561
0.0611894
0.0539233
0.0629803
0.0428941
0.0639468
0.0613406
0.0453916
0.0420894
0.0424068
0.0406216
0.0456985
0.0440168
0.0600362
0.0475384
0.0403839
0.0583847
0.0367341
0.050204
0.036061
0.0403356
0.0449261
0.0437469
0.0385773
0.0458134
0.057419
0.0470596
0.0394782
0.0550111
0.0647445
0.0595553
0.0438541
0.0545946
0.0447001
0.0612018
0.0373524
0.0427758
0.0464776
0.0351752
0.0595171
0.0447784
0.058087
0.0460617
0.0608196
0.0477336
0.0448726
0.0554551
0.0564375
0.0370115
0.0580105
0.0613228
0.0393865
0.048059
0.037448
0.0548269
0.0607478
0.0530589
0.0482494
0.0382419
0.0391146
0.0400704
0.0425967
0.0475469
0.0447469
0.0441439
0.0643916
0.0500588
0.0621133
0.0438552
0.0356572
0.0351063
0.046347
0.0361267
0.0521606
0.0409491
0.0464353
0.0556777
0.0555807
0.0448725
0.0405989
0.0598409
0.0448606
0.0398857
0.041809
0.0524844
0.0511862
0.0618329
0.064602
0.0450968
0.0622061
0.0524831
0.0501546
0.0391393
0.0371468
0.0427723
0.0482153
0.0507064
0.0491071
0.0573915
0.0537117
0.0443536
0.0485774
0.0411661
0.0497815
0.0647394
0.0361187
0.0389485
0.0377672
0.0370056
0.0499518
0.0550158
0.04163
0.0425011
0.0396476
0.0429649
0.0610976
0.0512745
0.0596167
0.0504825
0.0513354
0.0367657
0.0559452
0.0455677
0.0591541
0.05263
0.0627033
0.0429866
0.0510758
0.0360009
0.0555711
0.0466121
0.0436256
0.0350514
0.0463509
0.0446855
0.0497362
0.0631732
0.0495622
0.0424174
0.0390364
0.0599596
0.0398271
0.0438951
0.0367208
0.0554575
0.0634281
0.0531615
0.0425246
0.0370574
0.0398194
0.0513688
0.0367994
0.0466781
0.0638877
0.059545
0.061509
0.052727
0.0388628
0.0352286
0.0382723
0.0399061
0.0619694
0.0518653
0.0358882
0.0462279
0.0449779
0.0492916
0.0632362
0.0537689
0.0550099
0.0502394
0.0351929
0.0517437
0.041946
0.054775
0.0501402
0.0360554
0.0431655
0.0437831
0.0387642
0.0439179
0.0507312
0.0441459
0.0393539
0.0384343
0.0442099
0.0400235
0.0429831
0.0401158
0.0420703
0.0519081
0.0598867
0.0635507
0.0418687
0.0541542
0.0453087
0.0585338
0.0528963
0.0387874
0.0547741
0.0414179
0.0410249
0.0507306
0.0542961
0.0587976
0.0468619
0.0557099
0.0591327
0.0382292
0.0415166
0.0538392
0.0407544
0.0591591
0.0433215
0.0546018
0.053246
0.0451497
0.0612679
0.0491285
0.0413635
0.059243
0.0431825
0.0459796
0.0480864
0.0399962
0.0528982
0.0627688
0.0397334
0.0396563
0.05536
0.0502549
0.0448359
0.0422177
0.059183
0.0569464
0.0468038
0.0513162
0.0378619
0.0523104
0.0391566
0.0547974
0.0419936
0.0414554
0.0576042
0.0643401
0.0501043
0.0365855
0.0451811
0.0527393
0.0446263
0.0597305
0.0454836
0.0402483
0.0478257
0.0434174
0.063285
0.0412894
0.0356996
0.0604422
0.0582583
0.0561239
0.043483
0.0562409
0.052414
0.0394682
0.0504745
0.0518801
0.0554879
0.0519641
0.0545774
0.0392456
0.0500234
0.0353893
0.0369947
0.0583663
0.0367407
0.052664
0.0612706
0.0540088
0.0574187
0.0366895
0.0366931
0.0396097
0.0444546
0.0456285
0.0396466
0.0513515
0.0355046
0.0350189
0.0499259
0.0585321
0.0597094
0.0372067
0.0589285
0.0413314
0.0374156
0.064408
0.0647431
0.0564391
0.0576149
0.0475711
0.0418203
0.0360441
0.0551087
0.0452517
0.0373779
0.0408162
0.0604325
0.0562124
0.0466893
0.0607105
0.0476621
0.0425827
0.055684
0.0414138
0.05233
0.0608646
0.0507586
0.0635687
0.046512
0.0379019
0.0359412
0.0432295
0.0578138
0.0494579
0.060211
0.042866
0.0459999
0.0370348
0.04922
0.045599
0.0449969
0.0535202
0.0564332
0.0394079
0.0353022
0.0557476
0.0419142
0.0379404
0.0547253
0.0460193
0.0554894
0.0615463
0.059078
0.0429155
0.0462429
0.0560578
0.0388361
0.0416314
0.0568174
0.0536468
0.0648654
0.0616222
0.0367257
0.0525002
0.0431949
0.0405902
0.039903
0.0433741
0.0613536
0.0390265
0.0528223
0.042663
0.0397211
0.0523371
0.0483377
0.0362207
0.0418067
0.0383199
0.0551621
0.0553269
0.038748
0.0390501
0.0542628
0.0469665
0.049356
0.0394839
0.0509195
0.0510757
0.0602691
0.0352599
0.0552356
0.0641096
0.045886
0.03533
0.0402791
0.0462078
0.0616709
0.0433355
0.0649234
0.0431554
0.0384565
0.0553252
0.0356605
0.0613463
0.062292
0.0420261
0.0371323
0.0452604
0.0362569
0.0478399
0.0356645
0.0353964
0.0588001
0.051623
0.050013
0.0452126
0.0489194
0.0458437
0.042949
0.0362406
0.0567131
0.0436362
0.0460222
0.0353937
0.0413847
0.0384748
0.0647847
0.0581906
0.036981
0.0410078
0.0589481
0.0449001
0.0498928
0.0549849
0.0396844
0.0482832
0.037449
0.0568517
0.0433706
0.0587248
0.0454929
0.0642714
0.0636637
0.0364636
0.0547587
0.0610901
0.0588882
0.0613629
0.0611465
0.0535378
0.0358698
0.0643338
0.0618736
0.0565098
0.0510366
0.0442661
0.0448016
0.0568361
0.0570392
0.044796
0.0381104
0.0471205
0.0620482
0.0527621
0.0522548
0.0442054
0.0359086
0.055084
0.0356271
0.0446508
0.0571115
0.0478389
0.0609612
0.0357646
0.061584
0.0490396
0.0435926
0.0356795
0.057502
0.03719
0.0355672
0.0431513
0.0627702
0.0518415
0.0541721
0.0527788
0.0529941
0.0606193
0.0561939
0.0425618
0.0611715
0.0517051
0.0517824
0.0522641
0.0434991
0.044215
0.0387297
0.0589893
0.0594136
0.04398
0.0470321
0.0373881
0.0488761
0.052658
0.049681
0.0496792
0.0380052
0.0467596
0.0641952
0.04492
0.0564693
0.0525997
0.0351726
0.0443853
0.0441563
0.0473363
0.0352413
0.0473654
0.0460353
0.0486376
0.040374
0.0579212
0.050104
0.0391942
0.0466859
0.0382334
0.0643027
0.0452494
0.0482624
0.0437225
0.0515253
0.0575638
0.0575997
0.0639611
0.0454287
0.0522228
0.0560738
0.0456302
0.0397792
0.05701
0.0389867
0.0536497
0.0535688
0.0491104
0.0535063
0.049278
0.0572948
0.0425512
0.040278
0.0399077
0.0386528
0.0512608
0.0357211
0.0419968
0.0545706
0.0483704
0.0391257
0.0528141
0.0421003
0.0379555
0.0538864
0.0374401
0.0491683
0.0411278
0.0386801
0.0622189
0.0405768
0.0608678
0.0383467
0.053726
0.0415114
0.0419704
0.0547921
0.0374501
0.0578014
0.0590967
0.053403
0.0540266
0.0508219
0.0567648
0.0474639
0.0528432
0.0647912
0.0497357
0.0625169
0.0516904
0.0441285
0.0500163
0.0442888
0.0571152
0.0442653
0.0469588
0.035938
0.053384
0.0371527
0.0410033
0.0616943
0.0558792
0.0493624
0.0438987
0.0517456
0.0531128
0.0606543
0.0570167
0.0610688
0.0529569
0.0553965
0.0521712
0.0524648
0.0379506
0.0450536
0.056502
0.0603619
0.0559418
0.0505098
0.0386355
0.0463962
0.0562894
0.0411327
0.0468103
0.0353129
0.0514562
0.0428094
0.0623011
0.0475858
0.061597
0.0597459
0.0510886
0.0392696
0.0449238
0.0362772
0.0406713
0.0567715
0.044998
0.054469
0.0508218
0.0441665
0.0527303
0.0552102
0.0601082
0.0398956
0.0467619
0.0477714
0.0402348
0.0577064
0.0599176
0.0380161
0.0638925
0.045753
0.0427328
0.0623327
0.045444
0.039473
0.0477036
0.0375827
0.0362864
0.0499799
0.0509056
0.039687
0.0527455
0.0442688
0.0477406
0.0540566
0.0421812
0.0424117
0.0416064
0.0378327
0.0631407
0.0374457
0.0377533
0.0582969
0.0443209
0.0384169
0.0402826
0.0600252
0.0430307
0.0355559
0.0638845
0.0479833
0.0633415
0.0484256
0.0631685
0.0371568
0.0632353
0.0468703
0.0423554
0.0352848
0.0370406
0.0505455
0.0413215
0.0458529
0.0449215
0.062849
0.0443365
0.0491779
0.0598214
0.0432479
0.0607728
0.0604069
0.0380998
0.0541745
0.0495829
0.0382743
0.0475312
0.0467399
0.0419354
0.0506434
0.0453927
0.0619279
0.0641951
0.0563746
0.0435577
0.0376589
0.0427337
0.0502119
0.0559682
0.0602176
0.0440195
0.0408088
0.0446651
0.050401
0.0500112
0.052957
0.0571767
0.0351716
0.0605705
0.047531
0.0364295
0.048033
0.0578625
0.0599922
0.0360071
0.0367913
0.0537001
0.0404263
0.0447218
0.0547681
0.0518951