# vtk DataFile Version 3.0.
comment
ASCII

DATASET POLYDATA
POINTS 14958 double
0.522948 0.722279 0.96077
0.477563 0.665755 1.02171
0.566236 0.856777 1.03042
0.605515 0.911189 0.938827
0.300083 1.07402 0.672762
0.295709 1.13 0.748338
0.0971633 0.935601 0.255151
0.138319 0.908463 0.14636
0.392216 0.265817 0.646903
0.366416 0.293467 0.732143
0.544725 1.15361 0.57742
0.538489 1.21634 0.662847
0.816864 0.169358 0.912747
0.882855 0.188356 0.818161
0.290951 0.552075 0.783663
0.228134 0.547521 0.85598
1.19584 0.672127 0.769982
1.12733 0.67296 0.726893
0.994725 1.59909 0.846566
0.951056 1.52488 0.783675
0.179727 0.0656609 0.940285
0.112622 0.0756767 1.01888
1.09004 0.341181 0.538643
1.1483 0.407417 0.596047
1.00055 0.845115 0.974337
1.08484 0.860299 0.901449
1.39396 0.0957635 0.31411
1.41774 0.17073 0.276909
0.0395167 0.139752 0.195338
0.107796 0.215403 0.203261
1.64424 1.68687 0.835282
1.72103 1.69792 0.770977
0.150105 0.910061 0.951467
0.210305 0.885637 1.02517
0.199687 1.73511 1.00391
0.284882 1.72036 0.931202
0.0320582 1.69449 0.0984829
-0.0482283 1.645 0.121134
0.0463764 0.0444183 0.765148
0.0842662 0.13391 0.719917
0.150589 0.208697 0.666371
0.0842662 0.13391 0.719917
0.39792 0.319004 0.902738
0.404863 0.343578 0.797172
0.200448 0.111425 0.694642
0.0842662 0.13391 0.719917
1.50306 1.66144 0.930251
1.51232 1.63836 1.01464
1.37589 1.02703 0.146812
1.34043 1.01417 0.0688388
1.56044 0.256395 1.00548
1.48345 0.289304 1.07205
0.00635899 0.661549 0.0932863
0.0929689 0.680063 0.058215
1.51026 0.389766 0.90666
1.44204 0.327524 0.884591
0.303726 0.783768 0.879358
0.295841 0.697146 0.853643
0.135537 1.20622 -0.040393
0.0741442 1.13445 -0.0673148
1.14969 0.803903 0.983783
1.13364 0.792561 1.09707
1.05952 1.18786 0.319648
1.14811 1.10932 0.332621
1.72355 0.902915 0.118124
1.81468 0.905734 0.0476019
1.09221 0.489909 0.811421
1.05987 0.536664 0.721949
0.481148 1.16515 0.941644
0.421233 1.1418 1.03211
0.891478 0.764992 1.03216
0.830489 0.73831 0.947323
1.57337 0.0761039 0.83215
1.63121 0.0641257 0.789054
0.695899 0.97319 0.939358
0.732735 1.04299 0.983317
0.134114 1.45011 0.683817
0.134277 1.48344 0.754584
0.0208243 0.53236 0.310673
0.0153694 0.473302 0.408526
1.59915 1.36442 0.0268269
1.67069 1.3065 0.0667988
0.0839463 1.74276 0.813354
0.0463764 1.81382 0.765148
0.955227 1.53371 0.908419
1.01348 1.49174 0.852938
1.03722 0.928472 0.947819
1.08484 0.860299 0.901449
0.847067 1.26855 0.0482768
0.898081 1.28932 -0.0584939
0.148738 0.274816 0.733256
0.127435 0.350938 0.687853
0.234488 0.844498 0.827046
0.29285 0.827808 0.750456
1.03941 1.69337 0.372836
1.02138 1.69106 0.46123
0.0664776 1.62165 0.818021
0.132303 1.62941 0.888672
1.09594 0.710812 0.305052
1.18976 0.711362 0.356945
0.312773 0.193239 1.00454
0.303739 0.194871 0.926884
0.150105 0.910061 0.951467
0.0815852 0.887865 1.0009
0.228134 0.547521 0.85598
0.213261 0.531246 0.964891
0.899017 0.504504 0.954857
0.858291 0.472382 0.87497
1.2179 0.721111 0.951535
1.14834 0.709104 1.00671
1.69478 1.06609 0.955342
1.72372 1.09283 1.05535
0.115716 1.13702 0.390136
0.0756751 1.03989 0.32074
0.660189 1.65442 1.00073
0.62655 1.65466 1.11
1.57982 1.19154 0.76543
1.67545 1.19727 0.807738
1.1341 1.70444 0.975082
1.05381 1.73498 1.03505
0.199711 1.05854 0.970848
0.17617 0.974293 1.00675
0.417015 1.41026 0.904992
0.483838 1.43108 0.806774
0.135537 1.20622 -0.040393
0.190037 1.16513 -0.100023
1.1565 0.631653 0.0228222
1.12226 0.63959 -0.0526544
1.36943 1.50245 0.84501
1.376 1.58173 0.777426
0.12654 0.176194 -0.00623638
0.117354 0.274497 0.0410613
1.13973 0.339112 0.284513
1.13246 0.340468 0.165696
1.49497 1.32754 0.597676
1.52711 1.32506 0.482237
1.5367 1.67205 1.10824
1.51232 1.63836 1.01464
1.13514 0.497695 0.968767
1.18617 0.448838 0.899368
0.0554276 0.313209 0.931587
0.113249 0.307403 0.823427
1.05873 1.0965 0.972626
1.10121 1.01232 1.01435
0.999939 0.530255 0.948531
0.947059 0.585794 1.0242
0.245385 0.632089 0.83047
0.194841 0.641588 0.916302
1.45108 1.32742 0.0145688
1.44152 1.21816 -0.0480743
1.09661 1.12297 0.100282
1.16213 1.15358 0.039415
0.134205 1.48652 0.503219
0.0956495 1.48767 0.578614
0.0554276 0.313209 0.931587
-0.0129306 0.292861 1.00999
1.08266 1.70594 0.254959
1.17071 1.68676 0.228813
1.2 0.147288 0.896722
1.19062 0.137793 0.797583
0.074542 0.21342 0.788111
0.113249 0.307403 0.823427
0.384554 0.731617 0.968768
0.383376 0.658633 1.04935
0.125751 0.6193 0.723851
0.116865 0.548957 0.647675
0.0554276 0.313209 0.931587
0.108557 0.393306 0.933798
0.0554276 0.313209 0.931587
0.0170431 0.234862 0.861962
0.205624 0.777992 0.743415
0.122168 0.801877 0.806702
0.452445 1.44785 0.497511
0.464892 1.40986 0.577791
0.0785739 0.60601 0.112351
0.0929689 0.680063 0.058215
1.38049 0.179965 0.945351
1.31828 0.212151 0.893273
-0.045554 1.51929 0.865592
-0.0861569 1.56624 0.970249
0.111525 0.119651 0.400967
0.0464269 0.0659395 0.4432
0.757512 0.537137 0.956125
0.746018 0.559451 1.03247
0.130378 0.826961 0.269335
0.127738 0.741814 0.229776
1.66617 0.982157 0.498473
1.62495 0.888788 0.536523
0.439651 1.33727 0.823471
0.448574 1.30524 0.894216
0.793127 1.64789 0.75482
0.836534 1.62414 0.656628
1.11861 0.101912 1.05033
1.19081 0.0930165 0.980789
0.190727 0.713138 1.00921
0.161885 0.806345 0.973282
1.35767 0.663407 0.77631
1.3665 0.690547 0.86142
1.5254 1.43769 0.698012
1.46447 1.49257 0.790994
0.293392 1.31826 0.687133
0.367863 1.27306 0.630084
0.129738 0.116208 0.14157
0.0395167 0.139752 0.195338
0.0631031 1.28168 0.193253
0.0897999 1.37087 0.235537
0.42669 1.01888 0.357232
0.367663 1.00564 0.414872
1.77382 1.512 0.129547
1.78842 1.59791 0.0699706
1.09004 0.341181 0.538643
1.0244 0.267953 0.502786
0.0623721 0.616829 0.809263
0.0281503 0.523896 0.835865
0.0568984 1.19243 0.582212
0.0401301 1.25893 0.506103
0.91596 1.18025 0.902096
0.896325 1.24158 0.829442
1.09921 0.817234 0.785957
1.13153 0.753727 0.878918
0.736687 0.204951 0.97735
0.700737 0.262527 1.0489
1.45972 1.22131 0.483841
1.49748 1.14524 0.419416
0.377042 0.29467 0.0022276
0.429104 0.218882 -0.0803978
1.19081 0.0930165 0.980789
1.15413 0.181829 0.967397
0.638554 0.799342 0.439635
0.65738 0.812444 0.554004
1.56678 0.797299 0.507298
1.51886 0.881246 0.495629
0.775599 0.00100156 1.0249
0.831419 0.0146413 0.970764
0.0613059 1.73618 0.729031
0.103234 1.64554 0.714981
0.0818736 0.802012 1.01714
0.161885 0.806345 0.973282
1.40608 1.32507 0.961959
1.33843 1.39336 1.02195
0.894842 1.50839 0.378017
0.870724 1.55438 0.296722
1.33202 0.425706 0.56392
1.38344 0.420563 0.486033
1.67873 0.292471 0.107112
1.72397 0.233714 0.180792
1.10651 0.203084 0.469219
1.0244 0.267953 0.502786
0.948663 1.11537 0.259765
1.0395 1.1032 0.184619
0.613665 0.697971 0.515114
0.658475 0.702106 0.436852
0.310425 1.05393 0.510981
0.289639 1.06343 0.392431
0.167508 0.396799 0.300153
0.0990795 0.44076 0.358228
1.4439 0.164231 0.676081
1.461 0.142024 0.768147
0.64437 0.634165 0.746576
0.658186 0.632673 0.834902
1.30252 1.01344 0.431999
1.35523 1.00658 0.34789
0.115716 1.13702 0.390136
0.0311437 1.20484 0.419458
1.22212 0.127555 0.392334
1.21944 0.0464093 0.448544
1.20358 0.70424 0.0050545
1.14834 0.709104 -0.0455741
1.49623 0.746431 0.222659
1.53696 0.751499 0.150029
0.161754 1.11079 0.0172394
0.1777 0.992802 0.0643687
1.1553 0.25319 0.109279
1.21278 0.204888 0.175463
0.199711 1.05854 0.970848
0.161754 1.11079 1.06952
1.12931 1.59488 0.492844
1.17597 1.60665 0.567903
0.82941 0.571798 0.792282
0.896224 0.576169 0.742648
0.735763 0.237152 0.670312
0.809821 0.297669 0.71829
0.808269 1.25991 0.860995
0.804631 1.32819 0.930104
1.13488 0.642352 0.912872
1.10523 0.544301 0.89754
0.155423 1.06362 0.63289
0.103189 0.972636 0.598533
1.11376 1.68659 0.817974
1.07194 1.66599 0.902903
1.58654 0.862926 0.700455
1.58467 0.79288 0.679325
0.28866 0.444266 1.00428
0.358125 0.498662 0.942179
1.08925 0.0409052 0.949842
1.05381 -0.034423 1.03505
-0.000471058 0.827891 0.84176
-0.00493897 0.82006 0.756422
0.16377 0.64737 0.255341
0.0978829 0.71635 0.316767
1.07629 0.707928 0.646811
1.06595 0.800327 0.689147
0.629042 0.443593 0.485807
0.617554 0.4272 0.390761
1.14969 0.803903 0.983783
1.13153 0.753727 0.878918
1.37103 0.727735 0.0866472
1.30701 0.733368 0.181947
1.23497 0.347478 0.902233
1.2016 0.367967 1.00534
1.71584 1.72334 0.959904
1.72576 1.64338 1.04853
1.30279 0.401552 0.961498
1.36121 0.38196 0.8939
1.43279 0.532189 0.0176619
1.48312 0.46344 -0.017253
0.221775 1.25163 0.908748
0.315774 1.23876 0.931237
0.0953292 1.67589 0.497649
0.0709316 1.72981 0.434637
1.3595 0.304725 0.952878
1.328 0.343192 1.06662
1.2013 0.848295 0.806324
1.18504 0.822802 0.730629
0.0839463 1.74276 0.813354
0.172791 1.77482 0.753631
0.0237193 1.38713 0.968441
0.0932814 1.38626 0.902155
0.0955333 1.50938 0.326034
0.141548 1.5866 0.35204
0.316121 1.18416 0.596477
0.382906 1.15438 0.665903
0.64077 1.34856 0.866249
0.626861 1.32995 0.791972
0.656926 0.39489 0.884597
0.656612 0.464477 0.977604
1.30871 0.929256 0.787766
1.33464 0.891678 0.713366
0.104173 0.504752 0.129422
0.134545 0.443127 0.212244
0.104173 0.504752 0.129422
0.10043 0.577744 0.195427
0.150589 0.208697 0.666371
0.121948 0.218699 0.578994
0.127703 0.996216 0.687065
0.198817 0.944654 0.681108
1.38423 0.471772 0.985525
1.33249 0.519265 1.07001
0.899017 0.504504 0.954857
0.947059 0.585794 1.0242
0.150589 0.208697 0.666371
0.153253 0.142586 0.597385
0.134188 0.359841 -0.0493748
0.0694157 0.315452 -0.0244593
0.150589 0.208697 0.666371
0.232117 0.253815 0.708936
1.15802 0.604515 0.12652
1.07796 0.641957 0.213955
1.03548 1.76058 0.874306
0.980245 1.72906 0.949441
0.442065 0.136482 0.635823
0.493712 0.234118 0.608057
1.5278 1.09805 0.31712
1.48121 1.04986 0.364168
0.28478 0.0492769 0.960741
0.234369 0.0817256 1.02585
0.409735 0.146232 0.815985
0.37999 0.0807032 0.794278
1.63806 0.524834 0.0374846
1.65325 0.585222 -0.0571654
1.42742 0.678264 0.954603
1.39937 0.691682 1.03908
1.40352 0.116298 0.629396
1.48458 0.116696 0.572082
1.43177 1.41121 0.754232
1.42049 1.38248 0.665961
0.125751 0.6193 0.723851
0.159898 0.606411 0.818221
1.27157 0.628468 0.628224
1.3522 0.59876 0.592601
[...]
CELL_DATA 7479

SCALARS kn double 1
LOOKUP_TABLE default
4.33552e+06
5.44577e+06
4.52138e+06
5.76543e+06
4.4779e+06
5.09546e+06
5.61091e+06
4.59456e+06
3.87256e+06
5.10939e+06
4.85162e+06
5.01514e+06
5.38658e+06
4.15943e+06
4.86906e+06
4.85448e+06
4.6108e+06
5.41296e+06
4.58552e+06
5.07708e+06
5.44725e+06
5.10367e+06
5.81467e+06
4.24426e+06
4.03987e+06
4.93522e+06
4.5753e+06
4.5394e+06
4.34294e+06
4.42394e+06
5.57996e+06
5.71909e+06
5.52698e+06
5.09223e+06
5.27203e+06
5.13065e+06
3.53321e+06
4.26844e+06
3.73165e+06
5.52188e+06
4.81431e+06
4.50157e+06
4.34697e+06
4.27983e+06
5.77553e+06
4.30333e+06
4.69171e+06
4.33344e+06
4.64248e+06
5.07849e+06
3.75782e+06
4.18682e+06
5.37057e+06
4.48586e+06
4.18087e+06
5.18696e+06
6.06574e+06
5.52173e+06
5.04503e+06
4.9771e+06
4.44599e+06
5.78333e+06
4.20379e+06
3.97931e+06
4.96998e+06
5.25711e+06
5.76245e+06
5.76747e+06
4.84005e+06
4.53668e+06
5.91272e+06
4.9225e+06
5.03887e+06
4.47781e+06
6.07787e+06
4.52913e+06
4.07588e+06
5.01857e+06
4.5034e+06
4.38742e+06
5.02412e+06
5.11981e+06
4.95889e+06
4.34193e+06
5.34331e+06
5.08932e+06
4.30777e+06
4.4611e+06
4.1782e+06
5.88623e+06
4.45744e+06
3.83883e+06
4.45994e+06
5.23313e+06
3.73812e+06
5.25357e+06
4.6767e+06
5.01509e+06
4.31912e+06
5.97965e+06
4.78182e+06
5.06846e+06
4.80835e+06
3.98738e+06
4.91278e+06
4.96763e+06
4.9281e+06
4.92341e+06
4.62115e+06
5.66103e+06
4.74367e+06
5.12563e+06
5.97434e+06
4.55628e+06
5.59842e+06
4.41968e+06
3.79403e+06
4.66795e+06
4.38887e+06
5.42543e+06
4.392e+06
4.46365e+06
4.94641e+06
5.17015e+06
5.71513e+06
4.17272e+06
5.82482e+06
4.77163e+06
4.372e+06
4.32093e+06
4.51869e+06
5.33385e+06
4.46034e+06
3.60572e+06
4.02124e+06
6.15114e+06
4.81365e+06
5.63813e+06
4.29383e+06
3.98161e+06
4.96708e+06
4.5474e+06
4.97125e+06
5.28907e+06
4.54161e+06
3.51052e+06
5.02963e+06
5.73004e+06
4.10046e+06
5.45811e+06
4.85595e+06
4.61072e+06
5.69622e+06
5.53968e+06
5.30033e+06
5.75044e+06
4.2619e+06
4.43902e+06
4.68236e+06
4.04285e+06
5.95836e+06
3.88969e+06
5.23964e+06
4.32282e+06
4.30144e+06
4.59514e+06
3.74026e+06
5.56008e+06
4.10661e+06
5.15908e+06
4.62957e+06
4.3824e+06
4.15567e+06
5.30507e+06
5.60337e+06
4.56693e+06
3.92759e+06
4.95219e+06
5.97704e+06
4.69315e+06
5.41865e+06
3.89921e+06
4.23893e+06
3.61186e+06
5.36703e+06
4.32382e+06
4.68166e+06
4.21593e+06
4.8579e+06
4.42498e+06
4.32726e+06
4.54346e+06
5.04731e+06
5.38878e+06
4.63173e+06
4.92001e+06
4.30177e+06
5.3723e+06
5.23395e+06
5.14638e+06
5.44446e+06
5.94507e+06
5.2104e+06
4.3696e+06
5.67528e+06
3.77974e+06
4.99872e+06
5.10601e+06
4.57529e+06
4.80241e+06
6.0091e+06
5.00973e+06
4.40035e+06
4.79226e+06
5.16444e+06
4.46854e+06
3.54796e+06
5.1982e+06
4.23857e+06
4.19988e+06
4.1982e+06
4.70966e+06
4.14106e+06
5.33578e+06
5.31804e+06
5.07951e+06
5.41476e+06
5.84932e+06
4.67765e+06
5.08446e+06
4.64572e+06
4.95486e+06
5.00342e+06
3.87271e+06
4.73065e+06
4.32231e+06
4.91916e+06
5.64349e+06
5.15909e+06
4.50154e+06
5.30568e+06
4.66271e+06
5.59393e+06
5.74334e+06
4.81787e+06
3.80707e+06
4.30354e+06
5.54577e+06
4.49338e+06
4.96666e+06
4.8072e+06
5.46483e+06
4.88389e+06
5.46023e+06
4.84973e+06
4.27191e+06
4.68401e+06
4.37231e+06
4.80767e+06
5.60873e+06
4.24083e+06
4.78061e+06
4.00789e+06
4.55133e+06
5.17662e+06
4.7004e+06
5.07776e+06
5.14986e+06
5.11484e+06
5.13174e+06
5.58947e+06
5.74304e+06
4.52792e+06
3.96145e+06
4.37966e+06
3.7409e+06
5.28116e+06
5.33472e+06
4.83768e+06
4.59299e+06
3.85272e+06
4.66422e+06
4.28262e+06
5.38434e+06
4.52654e+06
4.42222e+06
4.42494e+06
5.3271e+06
4.52021e+06
5.59785e+06
4.14027e+06
4.96656e+06
4.91843e+06
4.25207e+06
4.22655e+06
5.75421e+06
4.02969e+06
4.13461e+06
5.78612e+06
4.44055e+06
3.82245e+06
4.83294e+06
4.44512e+06
4.58917e+06
3.84168e+06
4.19653e+06
3.80204e+06
4.79862e+06
4.33854e+06
4.36869e+06
4.89843e+06
4.78823e+06
4.45494e+06
4.73536e+06
3.66313e+06
5.02116e+06
4.64785e+06
4.13899e+06
4.99451e+06
4.39973e+06
3.87846e+06
4.64895e+06
4.9067e+06
4.67803e+06
4.46516e+06
5.08535e+06
5.1066e+06
5.16608e+06
4.86142e+06
5.82574e+06
4.34856e+06
5.08537e+06
5.45452e+06
4.884e+06
5.38203e+06
4.65633e+06
5.42465e+06
4.85458e+06
5.19503e+06
4.85627e+06
5.47629e+06
5.35227e+06
5.38133e+06
4.68995e+06
4.74597e+06
5.11921e+06
4.76356e+06
5.10053e+06
4.55714e+06
4.61695e+06
5.17651e+06
5.55984e+06
4.52891e+06
5.5663e+06
4.52217e+06
4.50045e+06
4.90705e+06
5.6954e+06
5.08453e+06
4.92956e+06
5.97726e+06
4.53896e+06
5.00164e+06
4.8209e+06
5.05193e+06
4.90653e+06
5.39188e+06
4.58279e+06
5.17087e+06
4.09698e+06
3.82623e+06
5.19971e+06
5.67514e+06
4.72701e+06
4.65479e+06
3.60523e+06
5.23809e+06
4.3299e+06
4.40251e+06
4.30617e+06
3.75331e+06
6.04253e+06
5.0435e+06
5.54137e+06
5.17788e+06
4.58691e+06
5.3033e+06
5.36136e+06
4.67557e+06
4.02241e+06
4.22654e+06
4.49756e+06
4.59453e+06
3.87805e+06
5.87929e+06
4.27646e+06
4.91898e+06
5.77519e+06
4.32559e+06
4.83597e+06
3.55513e+06
4.56091e+06
5.44585e+06
4.8055e+06
4.44554e+06
5.42463e+06
4.62825e+06
5.33269e+06
4.52051e+06
4.54431e+06
4.22764e+06
4.60257e+06
4.65083e+06
5.63737e+06
5.3499e+06
5.14836e+06
4.22563e+06
3.90452e+06
4.2701e+06
4.47479e+06
5.1901e+06
4.78283e+06
4.64885e+06
4.06201e+06
5.59751e+06
5.50341e+06
5.69928e+06
5.72062e+06
4.52987e+06
4.0166e+06
5.37929e+06
4.0594e+06
4.62991e+06
4.72093e+06
5.34978e+06
6.01766e+06
4.98435e+06
5.26885e+06
4.49309e+06
5.55109e+06
4.46462e+06
5.32952e+06
4.98696e+06
4.35649e+06
4.49832e+06
5.36605e+06
5.47358e+06
4.67647e+06
5.75624e+06
4.11145e+06
5.02442e+06
4.85593e+06
4.94179e+06
4.53896e+06
4.91187e+06
5.27866e+06
4.906e+06
4.3066e+06
4.51639e+06
5.31287e+06
5.53816e+06
4.76377e+06
5.24534e+06
4.37287e+06
5.72109e+06
3.84769e+06
4.76959e+06
4.76021e+06
4.11745e+06
4.92341e+06
3.58603e+06
4.15621e+06
4.80773e+06
5.54083e+06
5.98718e+06
5.30812e+06
3.79264e+06
4.75242e+06
5.54927e+06
4.24717e+06
4.7397e+06
4.90446e+06
4.10663e+06
5.29859e+06
5.46214e+06
5.23165e+06
4.45997e+06
4.49563e+06
4.56687e+06
4.48618e+06
4.82715e+06
5.67456e+06
3.95243e+06
5.05974e+06
5.91008e+06
4.712e+06
5.22845e+06
5.07611e+06
4.96487e+06
5.48668e+06
5.14448e+06
4.53728e+06
4.60889e+06
5.38891e+06
4.53802e+06
5.49317e+06
4.91435e+06
4.00232e+06
4.91644e+06
5.13797e+06
4.88988e+06
4.63785e+06
5.01602e+06
4.05796e+06
5.57741e+06
4.62439e+06
5.13535e+06
4.4254e+06
5.42769e+06
4.86302e+06
5.29291e+06
5.20395e+06
5.00685e+06
5.48375e+06
4.4128e+06
4.71749e+06
4.78445e+06
4.96654e+06
4.5913e+06
5.40529e+06
4.81768e+06
4.5859e+06
4.91001e+06
4.5907e+06
5.71224e+06
4.89091e+06
4.51882e+06
4.50832e+06
4.29405e+06
5.94126e+06
4.32721e+06
5.45262e+06
4.88364e+06
4.15697e+06
3.86938e+06
4.90111e+06
5.45658e+06
4.59678e+06
4.6466e+06
5.5048e+06
5.48942e+06
4.59936e+06
4.75089e+06
4.25041e+06
5.02999e+06
4.17473e+06
5.17172e+06
4.68042e+06
4.75907e+06
4.38701e+06
5.44676e+06
5.7356e+06
5.10214e+06
3.63004e+06
3.85826e+06
5.23601e+06
4.53711e+06
4.79766e+06
5.49208e+06
5.47997e+06
4.40936e+06
5.58208e+06
4.23054e+06
5.06877e+06
4.74888e+06
5.1326e+06
4.349e+06
5.83455e+06
4.38561e+06
4.61647e+06
4.70649e+06
5.31609e+06
4.40948e+06
4.25236e+06
3.60083e+06
4.86836e+06
5.31028e+06
5.55674e+06
3.38e+06
5.66034e+06
5.2759e+06
4.22561e+06
5.12313e+06
4.93085e+06
3.96125e+06
4.56888e+06
5.37432e+06
5.59914e+06
4.68873e+06
4.55964e+06
4.56498e+06
5.65394e+06
5.52339e+06
4.30889e+06
4.00825e+06
5.27613e+06
5.04076e+06
4.43804e+06
4.45339e+06
5.46264e+06
4.02979e+06
4.72952e+06
5.77215e+06
4.39082e+06
3.97909e+06
4.13397e+06
5.83123e+06
4.185e+06
5.7062e+06
4.90583e+06
4.22204e+06
4.68301e+06
4.24247e+06
4.442e+06
5.65991e+06
4.9606e+06
5.61679e+06
4.44819e+06
4.07686e+06
4.76314e+06
4.81868e+06
5.68731e+06
4.47305e+06
5.11456e+06
4.76801e+06
4.26518e+06
5.14484e+06
4.40751e+06
4.08457e+06
5.74731e+06
5.49789e+06
4.44847e+06
5.1469e+06
5.46661e+06
4.57916e+06
5.98316e+06
5.96988e+06
4.7955e+06
5.33447e+06
4.22754e+06
5.05748e+06
4.46816e+06
4.66783e+06
4.59162e+06
4.70012e+06
6.08186e+06
5.29022e+06
4.75129e+06
5.68295e+06
3.78412e+06
4.37977e+06
4.5569e+06
5.71532e+06
4.62021e+06
5.25097e+06
4.90133e+06
4.57519e+06
4.63837e+06
4.7357e+06
5.04621e+06
5.37464e+06
3.86945e+06
5.40878e+06
5.0762e+06
5.94116e+06
4.62817e+06
4.02239e+06
5.23635e+06
4.77502e+06
5.34086e+06
4.72956e+06
5.13279e+06
5.42436e+06
5.84465e+06
4.69401e+06
4.11742e+06
4.61005e+06
4.51635e+06
3.90289e+06
4.48328e+06
5.47311e+06
4.77167e+06
4.47733e+06
5.19569e+06
5.33688e+06
5.09649e+06
4.96792e+06
4.63539e+06
5.49036e+06
5.44894e+06
5.21175e+06
5.31161e+06
4.09977e+06
4.51809e+06
5.47543e+06
4.37655e+06
5.87594e+06
4.31112e+06
5.29667e+06
4.91161e+06
5.04846e+06
3.85548e+06
4.97515e+06
4.7857e+06
4.93224e+06
6.00229e+06
5.8865e+06
5.57184e+06
5.47491e+06
4.73417e+06
5.02964e+06
4.40477e+06
5.13775e+06
4.57975e+06
3.85865e+06
4.17708e+06
5.97863e+06
4.82742e+06
5.91869e+06
4.49031e+06
4.8754e+06
5.54215e+06
4.85054e+06
4.21833e+06
4.14506e+06
4.21947e+06
4.697e+06
5.81475e+06
5.59099e+06
4.35877e+06
4.89783e+06
4.71948e+06
5.59395e+06
4.51385e+06
4.20338e+06
5.40605e+06
4.17243e+06
3.68725e+06
4.94123e+06
5.0885e+06
4.91161e+06
5.24133e+06
5.23085e+06
5.03932e+06
5.217e+06
4.75067e+06
4.4816e+06
4.31678e+06
4.63972e+06
4.66174e+06
6.10664e+06
5.18764e+06
4.55987e+06
5.31123e+06
4.31977e+06
4.35533e+06
5.74505e+06
4.82657e+06
4.30319e+06
4.7741e+06
4.88208e+06
4.71268e+06
4.24288e+06
4.05786e+06
5.13124e+06
5.05151e+06
5.73425e+06
4.65652e+06
5.40503e+06
4.342e+06
4.71922e+06
4.83242e+06
5.42058e+06
5.6447e+06
4.57431e+06
5.28666e+06
4.26239e+06
4.30929e+06
5.66626e+06
5.48727e+06
4.75759e+06
3.83963e+06
4.64491e+06
5.9127e+06
4.41493e+06
5.70178e+06
4.7591e+06
5.32071e+06
5.66893e+06
4.22132e+06
4.29959e+06
4.15406e+06
4.46994e+06
4.48881e+06
4.21658e+06
4.79846e+06
4.45634e+06
5.94991e+06
4.53143e+06
4.45672e+06
4.92501e+06
3.95169e+06
5.2281e+06
5.03002e+06
5.28062e+06
3.72242e+06
4.42334e+06
5.81352e+06
5.4549e+06
5.33936e+06
4.22918e+06
5.86849e+06
5.0398e+06
5.48566e+06
5.84924e+06
5.00953e+06
4.18269e+06
4.62995e+06
3.68682e+06
5.26575e+06
4.48066e+06
4.03156e+06
5.35006e+06
4.58017e+06
5.59454e+06
4.38062e+06
3.92725e+06
4.68338e+06
5.07813e+06
4.40142e+06
4.79693e+06
5.70801e+06
4.15421e+06
5.05709e+06
4.8794e+06
4.95956e+06
4.39462e+06
5.43334e+06
4.78135e+06
3.65989e+06
4.44197e+06
4.07366e+06
4.52845e+06
5.07414e+06
4.33029e+06
4.31447e+06
3.8565e+06
4.84564e+06
5.18568e+06
4.09824e+06
4.84682e+06
4.04609e+06
4.847e+06
3.88874e+06
4.3321e+06
5.17855e+06
4.3438e+06
4.76863e+06
6.03987e+06
4.16674e+06
5.59317e+06
4.16809e+06
4.61652e+06
4.85634e+06
4.73087e+06
4.20365e+06
6.08451e+06
4.55423e+06
5.48858e+06
4.22855e+06
5.32323e+06
4.42786e+06
4.63648e+06
3.49639e+06
5.21945e+06
4.90489e+06
5.04782e+06
5.14794e+06
6.01774e+06
4.62448e+06
5.01285e+06
4.66947e+06
5.98032e+06
5.18193e+06
4.12136e+06
5.54463e+06
5.70234e+06
5.09177e+06
5.39517e+06
4.28879e+06
5.95077e+06
5.88478e+06
6.03477e+06
5.11844e+06
3.92251e+06
4.50837e+06
4.59658e+06
4.60057e+06
4.76755e+06
5.11372e+06
4.98865e+06
3.58232e+06
5.76678e+06
4.26308e+06
3.46259e+06
4.96568e+06
4.34644e+06
5.18461e+06
3.78258e+06
4.59175e+06
4.71777e+06
5.42508e+06
5.25247e+06
3.84469e+06
4.83608e+06
5.22287e+06
5.96751e+06
4.79475e+06
5.31687e+06
5.46088e+06
4.89547e+06
4.86502e+06
5.00476e+06
4.43309e+06
5.5308e+06
4.89233e+06
4.98864e+06
3.86423e+06
4.89774e+06
5.01096e+06
5.39836e+06
5.65987e+06
4.41219e+06
5.34109e+06
5.44554e+06
4.82325e+06
3.77186e+06
5.07274e+06
4.37756e+06
5.10084e+06
5.49407e+06
5.1804e+06
5.2308e+06
4.70209e+06
5.83732e+06
5.12992e+06
3.98971e+06
4.30255e+06
5.00304e+06
5.11815e+06
5.39221e+06
4.65132e+06
5.35361e+06
4.55935e+06
5.72711e+06
5.06237e+06
4.50192e+06
5.04841e+06
5.40199e+06
5.81051e+06
4.28577e+06
4.31565e+06
5.17222e+06
5.01073e+06
4.52737e+06
3.80913e+06
4.83094e+06
5.84663e+06
4.94414e+06
4.85769e+06
5.71671e+06
5.19003e+06
5.41393e+06
5.41188e+06
3.6963e+06
4.10082e+06
5.65752e+06
4.08629e+06
5.9941e+06
3.76886e+06
4.32206e+06
5.60945e+06
5.15784e+06
6.20652e+06
6.08497e+06
5.19276e+06
5.52612e+06
4.48356e+06
4.8513e+06
4.4966e+06
4.47243e+06
4.29046e+06
3.60893e+06
5.23544e+06
5.06975e+06
4.26012e+06
4.83302e+06
4.3957e+06
5.46931e+06
4.13707e+06
5.30967e+06
4.92412e+06
4.29138e+06
4.97366e+06
4.75278e+06
5.44831e+06
5.32645e+06
4.16121e+06
4.64272e+06
4.51505e+06
3.64308e+06
4.43239e+06
5.00491e+06
3.97572e+06
5.40535e+06
3.53239e+06
4.56361e+06
4.6266e+06
4.68244e+06
6.09287e+06
4.27042e+06
5.15154e+06
5.31783e+06
3.56779e+06
5.48137e+06
5.38343e+06
5.1799e+06
3.76237e+06
5.38987e+06
4.62833e+06
4.48478e+06
4.88866e+06
5.09751e+06
4.34414e+06
4.38836e+06
4.76981e+06
4.5328e+06
5.05423e+06
4.69587e+06
4.76566e+06
5.03531e+06
4.8376e+06
4.78569e+06
4.21134e+06
4.64973e+06
5.59668e+06
4.95664e+06
4.55213e+06
4.30635e+06
3.48222e+06
4.60165e+06
4.41174e+06
4.94563e+06
5.30815e+06
4.69467e+06
4.05356e+06
4.6909e+06
6.04509e+06
4.94582e+06
4.95366e+06
4.76047e+06
3.90674e+06
4.46333e+06
4.55057e+06
4.09947e+06
5.72528e+06
4.05316e+06
5.37567e+06
6.05544e+06
5.18282e+06
5.51986e+06
4.4323e+06
3.96141e+06
4.37639e+06
3.94574e+06
5.85263e+06
5.21212e+06
4.69031e+06
4.58954e+06
4.96927e+06
4.68495e+06
3.98671e+06
5.54786e+06
5.54526e+06
4.72944e+06
4.23354e+06
5.31296e+06
5.32463e+06
4.2825e+06
4.38559e+06
4.46329e+06
4.69529e+06
4.03149e+06
3.82482e+06
4.37357e+06
5.69684e+06
4.43636e+06
4.59912e+06
4.25666e+06
5.13193e+06
5.69327e+06
4.16302e+06
5.63392e+06
4.98682e+06
5.08939e+06
5.51385e+06
4.59558e+06
4.62121e+06
5.01512e+06
5.75082e+06
4.68966e+06
5.01845e+06
4.48893e+06
4.89851e+06
4.95888e+06
5.05826e+06
5.90127e+06
4.15385e+06
5.56879e+06
4.23366e+06
4.72059e+06
4.46012e+06
4.90964e+06
4.7542e+06
5.46149e+06
5.268e+06
5.2831e+06
5.17155e+06
4.70307e+06
4.02838e+06
4.29116e+06
4.18359e+06
4.06599e+06
4.77828e+06
4.71514e+06
4.40594e+06
4.17094e+06
5.74878e+06
5.37569e+06
5.74574e+06
4.81701e+06
4.69398e+06
5.94751e+06
4.25866e+06
5.43434e+06
5.28749e+06
4.87598e+06
4.65065e+06
5.53017e+06
4.3558e+06
4.85815e+06
4.28788e+06
3.7205e+06
4.42872e+06
4.7971e+06
4.68961e+06
4.9007e+06
5.9275e+06
4.45194e+06
4.60323e+06
4.98726e+06
4.90414e+06
4.46453e+06
4.42529e+06
4.33571e+06
4.13189e+06
4.96249e+06
4.18229e+06
4.40813e+06
4.63135e+06
5.13941e+06
5.00265e+06
5.62015e+06
4.62386e+06
5.29911e+06
4.62454e+06
5.30617e+06
4.83165e+06
5.67459e+06
4.31667e+06
5.11436e+06
5.05435e+06
4.241e+06
3.91122e+06
5.04355e+06
3.97861e+06
5.79493e+06
4.48152e+06
4.58772e+06
5.44382e+06
5.9045e+06
4.12525e+06
4.28192e+06
3.95015e+06
4.48303e+06
5.15927e+06
5.22094e+06
4.84981e+06
5.95204e+06
4.30367e+06
4.42727e+06
5.3239e+06
5.01572e+06
6.02365e+06
5.75481e+06
4.21602e+06
4.57067e+06
3.75663e+06
4.5121e+06
4.62748e+06
4.58987e+06
4.1144e+06
4.71662e+06
4.66326e+06
4.65769e+06
4.68135e+06
4.25102e+06
4.11877e+06
5.00206e+06
5.59974e+06
3.96492e+06
5.72462e+06
4.70163e+06
5.19055e+06
5.71287e+06
3.96488e+06
4.1211e+06
5.045e+06
4.71847e+06
5.29104e+06
3.95459e+06
4.78544e+06
4.06656e+06
4.25156e+06
5.34181e+06
3.75747e+06
4.64205e+06
4.75292e+06
5.21235e+06
5.6926e+06
5.65234e+06
3.88158e+06
4.78888e+06
4.89473e+06
5.73577e+06
5.02924e+06
4.11301e+06
4.62559e+06
5.51514e+06
4.96435e+06
5.53548e+06
5.99742e+06
4.88424e+06
3.71737e+06
5.51014e+06
5.0688e+06
4.84145e+06
4.76433e+06
5.32222e+06
5.11891e+06
4.89796e+06
5.26791e+06
4.33352e+06
4.93883e+06
4.63302e+06
4.82102e+06
4.53295e+06
4.91593e+06
4.42297e+06
4.89867e+06
4.33608e+06
4.54726e+06
5.80658e+06
5.79624e+06
4.57112e+06
5.68064e+06
4.55082e+06
5.17563e+06
5.12307e+06
4.65943e+06
4.11342e+06
6.12596e+06
4.92357e+06
5.23464e+06
4.96329e+06
3.99971e+06
4.66582e+06
4.6708e+06
4.34523e+06
4.82518e+06
4.35326e+06
4.44919e+06
4.28232e+06
4.9118e+06
5.31582e+06
5.03979e+06
4.59649e+06
4.88142e+06
3.95612e+06
4.26332e+06
6.14305e+06
4.68223e+06
4.62877e+06
5.16127e+06
5.41518e+06
5.69706e+06
4.96701e+06
4.46237e+06
3.88426e+06
5.35835e+06
4.81269e+06
4.42254e+06
4.06652e+06
4.33235e+06
4.93611e+06
5.27181e+06
4.42316e+06
5.90521e+06
4.12362e+06
5.00591e+06
5.08196e+06
5.24298e+06
5.49717e+06
4.33054e+06
5.00546e+06
3.98943e+06
4.75469e+06
4.71508e+06
3.69672e+06
3.91112e+06
5.68777e+06
4.81531e+06
4.59408e+06
4.25683e+06
4.18109e+06
5.10676e+06
5.38006e+06
3.63453e+06
4.40676e+06
4.29141e+06
4.31143e+06
4.43265e+06
4.78978e+06
4.77013e+06
5.98402e+06
4.59835e+06
4.69209e+06
4.74988e+06
4.67759e+06
4.40729e+06
5.51192e+06
5.66376e+06
4.02222e+06
5.23676e+06
5.45849e+06
5.15933e+06
5.47674e+06
5.06407e+06
5.42299e+06
4.83329e+06
4.11878e+06
4.39394e+06
4.8188e+06
5.76735e+06
4.97899e+06
5.38323e+06
3.94382e+06
3.95784e+06
5.47363e+06
4.03802e+06
4.17736e+06
4.83859e+06
5.1557e+06
4.6081e+06
4.77601e+06
4.19584e+06
5.17635e+06
5.31495e+06
4.54818e+06
5.08545e+06
3.93558e+06
4.68715e+06
3.92073e+06
4.47347e+06
4.1548e+06
5.06784e+06
5.01633e+06
6.02822e+06
4.85101e+06
4.71069e+06
4.59265e+06
3.79441e+06
4.76024e+06
4.14015e+06
4.96254e+06
4.39168e+06
4.65212e+06
4.37278e+06
4.35851e+06
4.39731e+06
4.56776e+06
5.50943e+06
5.379e+06
5.75901e+06
4.51501e+06
5.16824e+06
4.6868e+06
4.03358e+06
4.91223e+06
4.93631e+06
4.55643e+06
4.52229e+06
5.98231e+06
5.28912e+06
4.86587e+06
3.90415e+06
4.99964e+06
4.39962e+06
4.34602e+06
4.40032e+06
5.56325e+06
3.84994e+06
4.47038e+06
4.96282e+06
5.35257e+06
4.4981e+06
5.206e+06
5.55113e+06
4.81882e+06
4.73207e+06
5.51172e+06
3.75224e+06
4.56783e+06
5.13225e+06
4.43052e+06
4.75383e+06
3.87601e+06
4.79085e+06
5.50267e+06
3.96943e+06
4.84769e+06
4.9308e+06
4.05458e+06
5.09897e+06
4.94749e+06
5.13801e+06
6.04658e+06
5.02521e+06
4.89474e+06
5.91697e+06
4.35501e+06
4.61813e+06
5.63091e+06
4.60308e+06
4.44406e+06
5.96836e+06
5.13559e+06
4.7468e+06
4.77461e+06
5.12428e+06
5.02717e+06
5.69576e+06
5.65079e+06
4.51358e+06
5.7508e+06
5.16491e+06
5.10046e+06
4.71305e+06
4.31506e+06
4.68603e+06
5.90488e+06
5.53866e+06
5.78607e+06
4.50986e+06
4.48248e+06
4.88908e+06
4.98826e+06
5.86425e+06
5.89478e+06
4.39688e+06
5.36175e+06
4.73544e+06
5.07577e+06
4.15497e+06
4.58409e+06
4.99794e+06
4.77076e+06
4.46075e+06
5.51161e+06
4.5231e+06
5.29695e+06
4.83146e+06
4.70745e+06
4.75881e+06
4.94999e+06
5.4801e+06
5.67103e+06
4.47048e+06
5.1237e+06
3.98056e+06
3.71992e+06
3.9641e+06
5.86041e+06
4.38309e+06
4.5241e+06
4.22888e+06
3.95409e+06
4.94087e+06
5.04612e+06
4.59321e+06
5.23564e+06
4.57546e+06
4.65155e+06
4.97009e+06
4.61228e+06
5.35779e+06
4.8304e+06
5.17999e+06
4.80699e+06
3.69011e+06
4.55222e+06
5.39415e+06
4.37679e+06
4.33295e+06
4.5526e+06
5.30594e+06
4.02528e+06
5.29832e+06
4.32054e+06
3.99838e+06
5.07509e+06
4.99947e+06
5.73006e+06
4.26655e+06
5.66356e+06
4.51226e+06
4.42928e+06
5.17615e+06
5.93665e+06
4.25226e+06
5.05848e+06
4.24045e+06
5.443e+06
4.34937e+06
4.98509e+06
4.91527e+06
5.87765e+06
4.93191e+06
5.30401e+06
4.75323e+06
5.39956e+06
5.75158e+06
3.89933e+06
4.06953e+06
4.46088e+06
5.59913e+06
3.85013e+06
4.41325e+06
5.48057e+06
5.21797e+06
3.94823e+06
4.11028e+06
5.314e+06
3.83657e+06
5.0294e+06
4.80155e+06
5.88097e+06
4.07047e+06
5.81679e+06
4.449e+06
4.64473e+06
5.39763e+06
4.8587e+06
4.39987e+06
4.68077e+06
4.32971e+06
6.17984e+06
4.94723e+06
5.18865e+06
4.90604e+06
4.98761e+06
5.16697e+06
4.2637e+06
4.16716e+06
3.45861e+06
5.92454e+06
5.72917e+06
5.6965e+06
4.26882e+06
4.87952e+06
5.77541e+06
5.28594e+06
5.14139e+06
4.52519e+06
4.49373e+06
4.34682e+06
4.38889e+06
4.68664e+06
4.13211e+06
3.6398e+06
4.69564e+06
4.12471e+06
4.53149e+06
5.73201e+06
4.91695e+06
5.35711e+06
5.31507e+06
4.84774e+06
5.50853e+06
6.00718e+06
4.07486e+06
4.55692e+06
5.51143e+06
4.79503e+06
4.55647e+06
4.90886e+06
5.38945e+06
4.52061e+06
5.18647e+06
4.73574e+06
4.56161e+06
5.36091e+06
5.04979e+06
5.72535e+06
5.16669e+06
4.95959e+06
4.33609e+06
4.72492e+06
5.26807e+06
4.9185e+06
4.38053e+06
5.12563e+06
4.67069e+06
4.36863e+06
4.66731e+06
4.86194e+06
4.26376e+06
5.75435e+06
4.7657e+06
4.31518e+06
4.5832e+06
5.02016e+06
4.44508e+06
5.76015e+06
4.90202e+06
5.78387e+06
4.39136e+06
4.66639e+06
4.47563e+06
4.3043e+06
4.81613e+06
5.28715e+06
5.64852e+06
5.59672e+06
5.42886e+06
4.53757e+06
4.64928e+06
4.47802e+06
4.3649e+06
4.55752e+06
4.34423e+06
5.20824e+06
4.76057e+06
5.30836e+06
5.54214e+06
5.79994e+06