# vtk DataFile Version 3.0.
comment
ASCII

DATASET POLYDATA
POINTS 7479 double
0.495118 0.687619 0.998137
0.584534 0.882125 0.987752
0.297885 1.10214 0.710729
0.118211 0.921722 0.199514
0.378651 0.280355 0.69172
0.541868 1.18234 0.616553
0.851302 0.179272 0.863387
0.262673 0.550025 0.816217
1.16468 0.672506 0.750381
0.971687 1.55994 0.813388
0.140179 0.0715637 0.986607
1.12208 0.377606 0.570211
1.04 0.852222 0.94022
1.4068 0.136237 0.294026
0.0700325 0.173562 0.198879
1.68435 1.69264 0.801698
0.175505 0.899756 0.982562
0.244108 1.72742 0.965998
-0.0133752 1.66648 0.111301
0.0627586 0.0831113 0.745592
0.119813 0.173993 0.691218
0.401895 0.333073 0.8423
0.142874 0.122568 0.707168
1.50766 1.64998 0.972143
1.35483 1.01939 0.100505
1.52955 0.269596 1.03219
0.0497543 0.670825 0.0757141
1.47858 0.36086 0.896411
0.300056 0.743445 0.867387
0.112671 1.17949 -0.0504203
1.14141 0.798053 1.04221
1.10175 1.15043 0.325831
1.77148 0.904398 0.0810284
1.07686 0.512103 0.768951
0.447039 1.15186 0.993146
0.864266 0.753087 0.99431
1.60114 0.0703528 0.811458
0.711634 1.003 0.958135
0.134188 1.46523 0.71593
0.0180646 0.502481 0.360179
1.63657 1.33412 0.0477359
0.0650487 1.77851 0.789107
0.9823 1.5142 0.882633
1.05492 0.903134 0.930585
0.871625 1.27855 -0.003123
0.139476 0.307912 0.713516
0.261098 0.836888 0.792125
1.02973 1.69213 0.420278
0.101322 1.62576 0.85542
1.13694 0.711052 0.327729
0.308291 0.194049 0.966007
0.117544 0.899513 0.974957
0.221098 0.539822 0.907504
0.87586 0.486239 0.909432
1.17728 0.714099 0.983755
1.70913 1.07934 1.00491
0.0959838 1.08915 0.355937
0.64322 1.65454 1.05585
1.626 1.19431 0.78586
1.09844 1.71801 1.00172
0.186132 1.00995 0.991559
0.449051 1.42024 0.857905
0.157543 1.18963 -0.0644705
1.13748 0.636062 -0.0191019
1.37241 1.5384 0.814363
0.12161 0.228956 0.0191495
1.13591 0.339824 0.222112
1.51016 1.32637 0.543106
1.5229 1.65297 1.05524
1.15479 0.478881 0.942043
0.0836108 0.310379 0.878868
1.08165 1.05107 0.995144
0.978026 0.553269 0.979886
0.226722 0.635596 0.862163
1.44639 1.27385 -0.016147
1.12631 1.13684 0.0726971
0.115459 1.48708 0.539877
0.016792 0.301709 0.975899
1.12484 1.69675 0.242435
1.1967 0.143944 0.86181
0.0905673 0.25233 0.802732
0.38387 0.689278 1.01552
0.120902 0.580916 0.682284
0.0885745 0.363181 0.932966
0.034818 0.271143 0.894203
0.169038 0.788463 0.771159
0.458933 1.42805 0.539354
0.0856061 0.642186 0.0859048
1.34652 0.197542 0.916911
-0.0665146 1.54353 0.91962
0.0739538 0.0886517 0.425342
0.75223 0.547391 0.99121
0.128907 0.77951 0.247289
1.64528 0.934839 0.517756
0.444505 1.31985 0.861955
0.8165 1.6351 0.701948
1.16127 0.0966564 1.00925
0.175772 0.761467 0.990582
1.36181 0.676127 0.8162
1.49386 1.4661 0.746149
0.322802 1.30041 0.664603
0.0777864 0.129765 0.172531
0.0783784 1.33271 0.217447
0.394591 1.01168 0.388577
1.78241 1.56256 0.0944882
1.05367 0.300607 0.518776
0.045713 0.57159 0.822213
0.0483224 1.22644 0.543287
0.907383 1.20704 0.87036
1.11545 0.785331 0.832657
0.71918 0.232989 1.01219
1.47783 1.18482 0.452936
0.402527 0.257572 -0.0382178
1.17524 0.130709 0.975105
0.648675 0.806385 0.501119
1.54856 0.829209 0.502862
0.802482 0.00757038 0.99883
0.0780964 1.69989 0.723404
0.118136 0.803976 0.997261
1.37465 1.35679 0.989828
0.885669 1.52588 0.347098
1.35982 0.422925 0.521805
1.69805 0.267385 0.138569
1.05914 0.240509 0.488585
0.992816 1.10946 0.223239
0.640399 0.700438 0.468423
0.30017 1.05862 0.45249
0.130637 0.420487 0.331445
1.45037 0.155822 0.710943
0.651101 0.633438 0.789606
1.32252 1.01084 0.400084
0.0688553 1.17459 0.406383
1.22111 0.0970076 0.413494
1.17576 0.70669 -0.0204426
1.51576 0.748861 0.187832
0.169644 1.05241 0.0405599
1.18366 0.229363 0.141927
0.182137 1.08273 1.01653
1.15228 1.60068 0.529798
0.865902 0.574186 0.765173
0.779516 0.272905 0.698657
0.806768 1.28808 0.889506
1.12027 0.594045 0.905318
0.130443 1.02011 0.616459
1.09622 1.67795 0.853592
1.58557 0.826571 0.689488
0.317407 0.466777 0.978578
1.07112 0.00236984 0.99343
-0.00252823 0.824286 0.802468
0.129112 0.683654 0.287652
1.07049 0.759713 0.670538
0.622691 0.434531 0.433264
1.14051 0.778538 0.930772
1.34036 0.730433 0.1323
1.21946 0.357003 0.950166
1.7205 1.6858 1.00151
1.33702 0.390073 0.921892
1.45775 0.498105 0.000351969
0.267928 1.24531 0.91979
0.0851853 1.69831 0.471451
1.34444 0.323124 1.00728
1.19237 0.834293 0.764749
0.121384 1.75627 0.788187
0.0494036 1.38681 0.943966
0.113766 1.53998 0.336339
0.341845 1.17269 0.623218
0.633991 1.33949 0.830047
0.656783 0.426546 0.926908
1.3198 0.913178 0.755933
0.120287 0.472056 0.173364
0.102006 0.547015 0.16764
0.134281 0.214392 0.616618
0.158313 0.974022 0.684501
1.35764 0.496173 1.02893
0.921167 0.541983 0.986826
0.152057 0.172262 0.628351
0.0990094 0.335733 -0.035843
0.192416 0.231844 0.688208
1.11901 0.622757 0.169118
1.01085 1.74653 0.90781
0.464724 0.179319 0.623641
1.50231 1.07169 0.342857
0.258028 0.0664968 0.995295
0.393976 0.111515 0.804485
1.6446 0.550837 -0.00327162
1.41385 0.684758 0.995488
1.4375 0.116465 0.605375
1.42754 1.40046 0.721184
0.144722 0.61214 0.776278
1.30756 0.615206 0.612321
0.112721 0.540488 0.880418
0.0466788 0.226054 1.0224
0.911683 1.26095 0.544185
0.580329 1.13687 -0.043776
1.19773 0.597366 0.982194
1.05803 1.78144 0.905985
-0.0243831 0.307218 0.528237
1.5703 0.705858 0.952972
0.311361 0.399364 0.894631
0.160889 0.200397 0.717617
1.53078 0.640129 1.02464
1.28449 0.494551 0.939198
0.0203738 0.466582 0.0619492
0.44067 0.963643 0.65088
0.17352 0.175276 -0.0416818
0.502138 0.206687 0.704424
1.61389 1.69788 0.876768
1.72855 0.255581 1.03512
0.581572 0.508973 0.913486
0.747208 0.346933 1.029
0.117375 1.12277 -0.0255916
1.53543 1.62415 0.302643
0.465748 1.36855 -0.0435337
0.0823774 0.896014 1.04604
1.29073 1.44702 0.89239
0.858846 0.397441 0.797624
0.374578 1.19802 0.977191
0.126476 0.416501 0.0859044
1.61187 0.370352 0.805779
0.145362 0.577999 0.623704
0.0698482 0.627491 0.857511
1.04251 0.965761 1.05729
1.50906 1.74602 1.00621
0.118999 0.806055 0.947055
1.51846 0.838305 0.809902
0.220333 1.02575 0.0285689
0.514164 0.0581502 0.932178
1.44893 0.987429 0.603312
0.135076 0.287362 0.76797
1.15848 0.947897 1.0225
0.314986 1.63986 0.538171
0.0786442 0.179879 0.759344
1.48808 0.59153 1.02335
1.72415 0.836742 0.987797
0.933136 1.64518 0.741156
1.39828 1.00874 0.189382
0.468071 0.953704 0.899172
0.182433 0.0729678 0.652526
1.64504 0.384247 0.581536
0.527811 1.52156 0.928313
0.707265 0.380855 1.02422
1.34327 0.295587 0.0556303
0.0540345 1.36783 0.859738
1.42023 1.59007 0.812327
1.5589 1.60088 0.701285
0.628647 0.475568 0.80611
1.24455 0.671296 0.565988
1.15171 1.28008 0.589174
0.282652 0.347969 0.898845
0.917049 1.43931 0.80866
1.68074 0.255019 0.808511
1.27076 0.528988 0.277729
0.161073 1.40494 0.536971
0.189838 1.39431 0.615812
0.24258 1.36872 1.00192
0.533965 0.0593356 -0.00874947
1.5632 0.400648 0.984099
0.493291 0.245858 -0.00831643
0.888528 1.00707 0.914829
1.63151 1.58133 -0.0271296
0.170281 0.838113 0.496589
0.00309111 0.702429 0.476397
0.167297 1.07612 0.719374
1.51483 0.418255 0.873389
0.359915 1.40034 0.798248
0.0445546 0.406483 -0.00757376
0.141254 0.469776 0.843063
0.809685 0.611419 -0.0357202
0.660991 0.836509 0.691041
0.544009 1.03382 0.706575
0.618113 0.777866 1.00684
1.7089 1.38535 0.803464
1.31036 1.5666 1.01163
0.550922 0.26111 0.350488
0.135479 0.500276 0.530137
0.134065 1.54203 0.222935
0.733765 0.686862 0.719213
0.257114 1.46897 0.124414
0.249166 1.5456 0.169644
1.58744 0.69444 0.546133
0.160924 0.520149 0.323082
1.56294 0.298954 1.00961
1.59256 0.786246 0.483967
1.03265 1.05725 0.144743
0.0637132 0.00651297 0.513533
0.365942 0.100399 0.642649
1.50131 1.29072 0.955368
1.37513 1.02643 -0.00141675
0.190286 0.93763 -0.0379162
0.508251 1.34734 -0.0218733
1.12759 0.640756 0.963023
1.13851 0.0243227 0.981936
1.57867 1.25268 1.00462
0.175573 0.811024 0.583514
0.660059 0.407032 0.833185
1.43218 0.618942 0.890842
0.174532 0.304178 0.738181
0.367529 1.46848 -0.0109493
0.169422 0.507849 0.933158
0.873552 0.802253 0.0045027
1.77048 1.30902 0.896831
0.119687 0.631404 0.292616
0.971241 1.37536 0.870305
1.06748 1.11598 1.02392
1.72973 0.80521 -0.0245186
1.25561 0.785836 1.00461
0.486991 1.44549 -0.00846576
0.280539 1.07176 1.03354
0.246341 0.459724 0.850266
0.459893 0.766295 0.750433
0.637216 0.734664 0.75984
0.833132 0.570708 0.837749
0.433252 0.638764 0.945693
1.06417 1.03412 0.0788177
0.555382 1.19041 0.387362
0.606371 0.327267 1.03705
1.539 1.07268 0.993722
1.34672 1.69264 0.916121
1.43901 1.07946 0.191663
1.20702 0.335488 0.860731
0.616865 1.23936 0.238957
0.79321 1.03553 0.638498
0.20484 0.313227 0.957475
1.73475 1.6968 0.817113
1.38737 0.598658 0.0744154
0.978272 1.19254 0.520264
0.763839 0.457465 0.360297
0.167052 0.728243 0.858884
0.221148 0.809853 0.851779
1.50938 0.919737 0.541157
0.218496 1.27538 0.86736
0.198494 1.59182 0.106687
0.164846 1.60333 0.163412
1.16578 1.70051 1.00905
0.55779 1.04797 0.976767
1.59183 1.31644 1.05944
1.01587 1.73193 0.990897
1.36434 1.71882 0.979416
1.50296 1.23528 0.362769
1.21212 1.55264 0.414157
1.21641 1.68785 0.995898
0.19436 0.688976 0.00497065
0.23003 0.676248 1.01492
0.206803 0.35449 0.78443
1.70356 0.915283 0.956802
1.00817 0.100448 0.984394
0.299874 0.0304344 1.00047
0.202518 1.6834 0.649189
1.31543 1.15136 0.493107
0.09135 1.53552 0.25257
0.205345 1.63288 1.02013
0.931401 0.635192 0.846176
1.44219 0.398925 0.943882
0.852137 0.292806 0.993166
1.19401 1.59798 0.396167
0.765313 0.586402 1.00444
1.63483 1.13481 0.714132
0.199138 1.21314 0.629765
0.219634 1.17238 0.664153
0.153532 1.15966 0.610709
1.18258 1.50884 0.433013
1.50322 0.0618194 0.225233
1.33816 0.906921 0.473245
-0.0114663 -0.0293472 0.407847
0.149834 1.30309 0.744014
0.701071 1.10689 0.557906
0.199951 1.44044 0.528663
0.0483536 0.706959 0.962615
0.34335 0.281631 -0.0468436
0.805068 1.59109 1.03728
1.50148 1.73819 0.75646
1.46609 0.877006 0.884391
0.212321 0.0403587 0.894772
0.730619 0.793766 0.767966
-0.00510796 0.0862885 -0.00824134
0.621898 0.94957 0.752907
0.319918 0.711108 0.814067
0.943508 0.870561 0.650379
[...]
POINT_DATA 7479

VECTORS nn double
-0.479243 -0.596873 0.643482
0.345927 0.479201 -0.80666
-0.0464514 0.594578 0.802695
0.344577 -0.227211 -0.910847
-0.276669 0.296509 0.914077
-0.0587415 0.590845 0.804644
0.564585 0.162534 -0.809214
-0.655039 -0.0474929 0.754101
-0.846439 0.0102896 -0.532387
-0.409539 -0.695986 -0.589815
-0.646274 0.0964607 0.756984
0.553588 0.629335 0.545415
0.749491 0.135008 -0.648102
0.273312 0.861664 -0.427593
0.668 0.740114 0.0775084
0.762047 0.10957 -0.638184
0.612754 -0.248605 0.750152
0.754151 -0.130605 -0.643583
-0.827721 -0.510239 0.233526
0.353473 0.834869 -0.421961
-0.584871 -0.659509 0.4722
0.0639193 0.226257 -0.971968
-0.960128 0.185816 0.208872
0.105196 -0.262378 0.959214
-0.409363 -0.148385 -0.900224
-0.719784 0.307654 0.622302
0.909216 0.19436 -0.368172
-0.718537 -0.655506 -0.232415
-0.08693 -0.955021 -0.283511
-0.625115 -0.730813 -0.274123
-0.139597 -0.0986446 0.985283
0.743839 -0.659424 0.108921
0.790617 0.0244493 -0.611823
-0.305107 0.441058 -0.844025
-0.539808 -0.210351 0.815083
-0.565554 -0.247419 -0.786723
0.79107 -0.163813 -0.589384
0.407764 0.772621 0.486606
0.00208915 0.426045 0.9047
-0.0476733 -0.516133 0.855181
0.712868 -0.5772 0.39832
-0.400858 0.758138 -0.514334
0.641983 -0.462581 -0.611455
0.500127 -0.716018 -0.487023
0.424622 0.172894 -0.888709
-0.233695 0.835048 -0.498078
0.597189 -0.17078 -0.783709
-0.199793 -0.025555 0.979505
0.679491 0.0800597 0.729303
0.875041 0.00512452 0.484022
-0.115548 0.0208669 -0.993083
-0.784371 -0.254085 0.565864
-0.133843 -0.146457 0.980121
-0.427575 -0.337243 -0.838717
-0.776392 -0.134019 0.615836
0.269246 0.248752 0.930392
-0.318033 -0.771394 -0.551186
-0.294234 0.00206852 0.955731
0.913132 0.0547486 0.403971
-0.766414 0.291479 0.572407
-0.24896 -0.890969 0.379727
0.554068 0.172613 -0.81438
0.601332 -0.453339 -0.657939
-0.411215 0.0953412 -0.906539
0.0630147 0.759521 -0.647423
-0.0839011 0.897944 0.432038
-0.0611098 0.011396 -0.998066
0.268187 -0.0206506 -0.963146
-0.238079 -0.32892 -0.913855
0.515226 -0.493371 -0.700804
0.470928 -0.0472862 -0.880903
0.411969 -0.816429 0.404629
-0.490854 0.515533 0.702345
-0.505132 0.0949409 0.857804
-0.0756397 -0.865041 -0.495967
0.693193 0.323817 -0.643915
-0.455258 0.0135012 0.890257
-0.644956 -0.191985 0.739712
0.938376 -0.204448 -0.27866
-0.0937272 -0.0949191 -0.991063
0.359723 0.873429 0.328209
-0.0108354 -0.67124 0.74116
-0.0853867 -0.675941 -0.731992
0.552617 0.833118 0.0229999
-0.343882 -0.701902 -0.623762
-0.776857 0.222334 0.589119
0.138789 -0.423638 0.895136
0.155029 0.797525 -0.583026
-0.71274 0.368759 -0.596673
-0.333686 0.385839 0.860106
-0.689794 -0.569143 0.447504
-0.143029 0.277662 0.949972
-0.0281096 -0.906543 -0.421177
-0.378454 -0.857178 0.349313
0.114155 -0.409797 0.905005
0.39478 -0.216014 -0.893021
0.717383 -0.0883911 -0.691049
-0.277403 0.896455 -0.345566
0.0983123 0.302342 0.948116
-0.491498 0.442644 0.749997
0.715155 -0.434078 -0.547842
-0.838217 0.218741 0.499544
0.261085 0.872259 0.413521
-0.706431 -0.158402 0.689829
0.138301 0.813849 -0.564378
-0.627074 -0.69959 -0.342566
-0.333727 -0.906271 0.259421
-0.163676 0.649086 -0.742898
-0.20226 0.631675 -0.748383
0.275874 -0.542201 0.79367
-0.364522 0.583803 0.725464
0.354252 -0.713616 -0.604365
0.421155 -0.613088 -0.668395
-0.378093 0.91542 -0.138028
0.161392 0.112319 0.980478
-0.492158 0.862216 -0.119853
0.707045 0.172768 -0.68574
0.415745 -0.898746 -0.139322
0.875938 0.0474302 -0.480087
-0.597062 0.602663 0.529447
-0.250024 0.476704 -0.842758
0.550135 -0.0550159 -0.833261
0.432706 -0.562095 0.704851
-0.747153 0.590304 0.305457
0.766445 -0.102685 -0.634048
0.496364 0.0457949 -0.866906
-0.172166 0.0786293 -0.981925
-0.684708 0.439876 0.581106
0.177769 -0.230751 0.956636
0.154526 -0.0166904 0.987848
0.529707 -0.0688841 -0.845379
-0.753079 0.603903 0.2611
-0.0272079 -0.821735 0.56922
-0.735613 0.0647803 -0.674298
0.488166 0.060761 -0.870633
0.124531 -0.921426 0.368058
0.574273 -0.482616 0.661281
-0.32186 0.443052 0.836726
0.52333 0.13204 0.841838
0.801635 0.0524418 -0.59551
0.692142 0.565582 0.448394
-0.0374246 0.702347 0.71085
-0.286238 -0.946655 -0.148029
-0.473148 -0.824181 -0.311219
-0.431655 -0.212656 0.876614
-0.0255914 -0.957073 -0.288716
0.643846 0.504174 -0.575562
-0.297484 -0.632361 0.715278
-0.0520659 -0.091255 -0.994466
-0.58072 0.607984 0.541405
-0.101282 0.904443 0.414397
-0.118278 -0.168767 -0.978534
-0.154342 -0.426448 -0.891247
-0.556995 0.0489966 0.829069
-0.3025 0.185781 0.934869
0.0828222 -0.66761 0.73989
0.638708 -0.214192 -0.739036
0.546604 -0.746625 -0.379177
0.964047 -0.131969 0.230647
-0.28223 0.62372 -0.728917
-0.253711 0.309873 0.916302
-0.199546 -0.312756 -0.928636
0.795046 0.286841 -0.534439
0.723919 -0.00904364 -0.689826
0.491741 0.825199 0.277917
0.66234 -0.295362 0.688526
-0.178729 -0.239019 -0.954424
-0.00270133 0.599069 0.800693
0.297023 -0.430495 -0.852321
0.282241 -0.572679 0.769661
-0.0380102 0.741173 0.670237
-0.30965 0.108136 -0.944682
0.807734 -0.58565 -0.0676666
-0.470907 0.432284 0.769011
0.410086 0.6939 0.591889
0.0278684 -0.691631 -0.721713
-0.786253 -0.538828 0.302443
0.795852 0.440429 0.415503
-0.643958 0.301167 0.70329
-0.561133 -0.320184 0.76329
0.453484 0.857271 -0.243801
-0.568951 -0.588396 0.57453
-0.569552 0.366612 0.735667
-0.395724 -0.871785 -0.28878
0.134113 0.533007 -0.835414
-0.311584 0.149057 0.938455
0.816524 0.00401107 -0.577298
-0.120634 -0.307215 -0.943963
0.337488 -0.127385 0.932671
0.866811 -0.319369 -0.382939
-0.180615 0.929524 -0.321501
-0.5728 -0.334952 0.748135
-0.291942 -0.704894 0.646447
0.242254 0.952969 -0.182106
-0.63151 -0.619627 -0.466108
0.511035 0.472638 0.717953
0.300076 0.0398569 -0.953082
0.694868 0.294219 -0.656196
0.591253 0.290238 -0.752451
0.194607 -0.156811 0.968266
-0.0217771 0.825221 -0.564389
0.552277 -0.097788 -0.827905
-0.352725 0.848625 0.394234
-0.023428 0.105339 -0.99416
0.798184 -0.0155987 -0.602211
0.907095 0.419576 -0.033685
-0.57742 0.209377 0.789144
0.21969 -0.8089 0.54536
0.0222287 0.810798 0.584904
-0.44198 -0.0124778 -0.896938
-0.706333 0.190736 -0.681699
0.149272 0.782826 -0.604071
0.126142 0.283022 -0.950782
0.0172674 0.177617 0.983948
0.927127 -0.0417989 0.372408
0.778759 -0.610517 -0.144236
0.214843 -0.745968 -0.630376
-0.43435 -0.60575 0.666639
-0.827578 0.433021 -0.357221
0.603437 0.614987 -0.507596
-0.1496 -0.213336 -0.965457
-0.338353 0.880914 0.330918
-0.566916 0.477786 0.671064
0.853095 0.00577224 0.521724
0.337855 0.786525 -0.516946
0.659023 0.509357 -0.553393
0.2812 -0.681429 -0.675708
0.837209 -0.476265 -0.268798
-0.347126 0.318744 0.88199
0.0772811 0.240949 0.967456
-0.864276 0.279457 0.418247
0.0924361 -0.755807 -0.648238
-0.805892 -0.0667951 -0.588283
0.429034 -0.890571 0.151041
-0.52843 -0.344501 0.775939
0.435108 -0.355423 0.827258
0.245518 -0.903258 0.351916
-0.301208 -0.642986 -0.704161
0.0656393 -0.0655322 -0.995689
0.159623 0.550907 0.819159
0.180948 -0.541019 -0.821314
0.235448 -0.734203 0.636797
-0.647044 -0.303818 -0.699306
-0.776549 -0.146378 -0.612817
-0.0262152 0.816226 -0.577138
0.64874 0.0926854 0.755345
-0.760511 0.337637 0.554639
-0.923746 0.197257 0.328304
0.00918461 -0.747943 -0.6637
0.391238 -0.422813 -0.817412
-0.530717 -0.520791 0.668668
-0.132816 -0.646536 -0.751233
-0.355004 -0.527394 -0.771899
-0.172031 0.720245 -0.672051
0.392862 0.405003 0.82561
0.693201 -0.368286 -0.619546
0.0540628 -0.829993 0.555148
0.756022 0.276814 -0.593131
-0.352216 0.176071 0.919208
0.233652 -0.257694 -0.93755
-0.791688 -0.548351 -0.269335
-0.851103 0.301568 0.429745
-0.864487 -0.490202 0.111191
0.103597 0.646922 -0.755486
-0.331492 -0.674933 0.659226
0.112346 -0.307355 -0.94494
-0.285116 0.224077 0.931933
-0.433571 0.128898 -0.891853
-0.185852 -0.638175 -0.747123
0.469153 0.112947 0.875865
-0.216009 -0.407819 0.887144
0.723951 -0.616153 0.310241
-0.0745565 -0.520289 0.850729
-0.091029 0.240197 -0.966447
0.315273 0.906139 -0.281985
0.26623 -0.506113 -0.820348
-0.0102279 0.390833 -0.920405
-0.65356 0.591462 0.472263
0.510696 0.788658 0.342356
0.792381 0.412106 -0.449779
0.360158 -0.882204 -0.303318
-0.0584101 -0.993645 -0.0962183
0.706604 -0.302967 -0.639471
0.111891 0.750522 0.651304
-0.924522 -0.36098 0.12228
0.329288 -0.28718 0.899498
-0.390995 -0.319606 -0.863119
-0.824191 0.514863 -0.23585
0.35275 -0.916171 0.19026
0.790078 -0.0487179 -0.611067
-0.143866 -0.0314781 0.989096
-0.806444 0.271434 -0.525331
-0.154204 -0.506725 -0.848204
-0.840051 0.425843 -0.336114
0.0592095 0.229435 -0.971522
-0.830266 -0.440735 0.34119
0.654823 0.745372 0.125007
-0.491034 -0.0932077 -0.86614
0.743537 0.396834 0.538215
0.372487 -0.774245 -0.511661
0.776556 -0.521381 -0.353727
0.735975 0.266554 -0.622326
-0.0812018 -0.720036 0.689169
0.157517 0.35054 0.923206
0.276395 -0.0180634 -0.960874
0.577749 0.232136 -0.782508
0.358939 -0.190764 -0.913659
-0.688387 -0.520234 0.505451
-0.387317 -0.106233 0.915806
-0.651761 -0.369844 -0.662135
-0.608773 -0.356868 0.708548
-0.0815584 0.0239019 -0.996382
0.304924 0.418238 -0.855627
-0.721063 -0.303384 0.622918
-0.490432 0.338024 -0.803253
0.0114016 -0.630558 0.776058
0.97461 0.0525502 -0.217655
-0.439762 0.130253 -0.888619
-0.730069 0.601898 0.323603
-0.543124 -0.233037 -0.806666
0.470844 0.769397 -0.431665
0.20874 0.570032 0.794664
0.370312 0.579944 0.725626
-0.284934 0.0231776 -0.958267
-0.853821 -0.484822 0.18957
-0.801647 -0.00722889 -0.597755
-0.264282 -0.467761 -0.843418
-0.63837 -0.637978 -0.430661
0.299054 0.776641 -0.554432
0.156965 -0.63762 -0.75419
-0.0685613 0.49659 -0.865273
-0.950503 -0.256763 0.174978
0.364768 0.456631 0.811439
0.679616 -0.0843184 0.728706
0.161412 0.639232 0.751883
0.139737 0.916185 0.375603
-0.650859 -0.0523428 -0.757392
-0.0140703 0.765326 0.643488
-0.422128 0.616229 0.664883
-0.961473 -0.0280738 -0.273461
-0.225951 0.142053 0.963726
-0.0673876 0.448278 -0.89135
-0.72508 0.680578 -0.105228
-0.0732459 -0.389627 -0.918056
0.0251491 -0.844771 0.534536
-0.0893477 -0.519435 0.849826
0.32464 -0.405274 0.854612
0.188437 0.939867 0.284853
0.498209 -0.236965 0.834048
-0.741583 -0.659787 -0.121389
-0.0339608 0.131964 0.990673
-0.163642 0.220354 -0.961595
0.304096 -0.434794 0.847632
0.750498 0.372454 0.545922
-0.678835 -0.734258 0.00693534
-0.444531 -0.620913 0.645646
0.396286 -0.524302 0.753701
-0.630253 -0.523254 0.573574
-0.984511 0.174695 -0.014803
0.151118 0.394606 0.906338
-0.500732 0.654135 -0.566899
0.387938 -0.604456 -0.6958
-0.610032 -0.247789 0.752636
0.143632 -0.685422 -0.71384
0.292617 -0.66549 -0.686657
0.0550772 -0.446768 0.892953
0.358442 0.123766 -0.925311
0.135028 -0.0407622 -0.990003
-0.552908 -0.213988 -0.805296
-0.0373189 0.362645 0.93118
-0.73456 0.399809 -0.548246
-0.633982 0.244623 -0.733639
0.530572 -0.411868 -0.74085
-0.744053 -0.112424 0.658593
0.478844 0.372046 -0.795167
-0.463025 -0.498133 0.733124
-0.497627 -0.288582 0.817978
0.429934 -0.75948 0.488208
0.719988 0.458566 -0.520898
0.813721 0.227016 -0.535091
-0.167783 0.159172 -0.972889
-0.27792 0.109961 -0.95429
0.331834 -0.909494 -0.250413
0.934976 0.0200697 0.354143
-0.667148 0.420432 0.61494
0.318435 0.220534 -0.921935
0.298569 0.441141 0.846316
0.381312 0.0551354 0.922801
0.229288 0.455333 -0.86029
-0.363201 0.518267 0.774264
-0.231673 -0.83724 -0.495335
-0.380788 -0.335287 0.861733
-0.50853 -0.0148986 0.860915
-0.537435 0.746283 0.392716
-0.420489 0.0789302 0.903858
-0.789424 -0.138246 0.598078
0.353696 0.716657 0.601084
-0.166128 0.831871 -0.52952
-0.417092 -0.819836 0.392306
0.608642 0.29353 0.737153
0.589863 0.806111 -0.0473976
0.527981 -0.227656 0.818174
-0.238011 0.660289 0.712299
-0.513098 0.603299 0.610541
0.370275 0.707437 -0.60202
0.490934 0.16463 0.8555
-0.0944362 -0.788268 -0.608042
-0.363124 0.60684 0.707026
0.228339 -0.698063 0.678652
0.837092 0.413369 0.358335
-0.209212 0.499168 -0.84087
0.431919 0.853037 0.292873
0.50539 0.561248 -0.655425
0.0812417 0.996616 0.012501
0.706819 0.650756 0.27735
-0.0232223 -0.728701 0.684438
0.125313 0.262326 0.956808
-0.593195 0.698708 0.399909
0.676403 0.612374 0.40924
0.340885 0.448485 -0.826232
0.0965909 0.218821 0.970972
0.229103 -0.934241 -0.273324
-0.407877 -0.107531 -0.906683
0.803613 0.236698 -0.546058
-0.663242 -0.476838 0.576832
0.724603 -0.562496 0.398182
0.361717 0.0907548 0.92786
-0.172658 -0.787902 -0.591101
0.879411 -0.352874 -0.319557
-0.0273557 0.0651628 -0.9975
-0.579076 0.170686 -0.797206
-0.792121 -0.331912 -0.512229
0.390206 0.0407946 0.919823
-0.000101029 -0.173342 -0.984862
-0.890385 0.427242 -0.157098
0.0448956 -0.288454 0.956441
-0.653316 0.476602 -0.588242
-0.376138 0.517318 -0.768702
0.203385 0.394517 0.896098
0.392154 -0.905886 -0.159954
-0.796391 -0.604762 -0.0049336
0.147932 -0.894526 0.42183
0.796246 -0.193191 -0.573297
0.491693 0.743812 -0.452749
0.224847 -0.931048 0.287392
-0.414525 -0.302004 -0.858465
-0.263084 -0.55199 -0.791261
0.790079 0.273353 -0.548683
-0.544897 0.473845 -0.691779
-0.186732 -0.555985 -0.809946
0.876574 -0.358208 0.32141
0.129895 -0.707905 -0.694261
-0.0778436 -0.233673 -0.969194
0.546669 -0.83711 0.0199967
0.41149 -0.366362 0.834539
-0.0774771 -0.400725 -0.912916
-0.394869 -0.854241 0.338158
0.267658 -0.0431007 0.96255
0.837771 0.164407 0.520682
-0.428253 0.00280336 0.903655
0.0353156 -0.682072 0.730432
0.53159 0.156284 0.832459
-0.98698 0.000771834 0.160841
0.0427163 -0.194629 -0.979946
0.432886 -0.625062 0.649544
-0.231362 -0.668629 0.706687
0.755402 0.13869 -0.640416
-0.604889 0.411172 0.681944
-0.427446 0.0857322 -0.899966
-0.659964 -0.308609 0.684988
-0.398467 0.0387601 0.916363
-0.898656 -0.229142 0.374046
-0.151576 -0.0103884 0.988391
0.544632 -0.355921 0.759405
0.333082 -0.716178 -0.613308
-0.314523 -0.792094 0.523127
0.26297 0.349497 0.899277
-0.705439 0.128589 -0.697008
-0.961364 -0.00323416 0.27526
-0.336173 0.755573 -0.562226
0.142066 0.446546 0.88341
0.44145 0.893486 -0.0824905
-0.10625 0.940677 0.322238
0.34729 -0.603757 0.717543
-0.820648 -0.419768 -0.387727
-0.328955 -0.580282 -0.745025
0.0195384 0.942208 -0.334458
-0.825924 -0.55863 0.076048
-0.0166496 0.00547709 0.999846
-0.349308 0.452013 0.820773
-0.595303 0.334165 0.730718
0.406696 0.761708 -0.50438
-0.0477778 -0.691462 0.720831
-0.676951 -0.562281 0.474949
0.816934 0.451838 -0.358414
-0.844766 -0.329777 0.421448
0.669005 -0.5661 -0.481625
-0.0955678 -0.908103 0.407695
-0.687384 0.313404 -0.655195
-0.494363 -0.617595 0.611704
-0.13562 0.83945 -0.526243
-0.301387 0.88002 0.367056
0.171422 -0.809236 0.561918
0.506374 0.824702 -0.251898
-0.0398586 -0.381361 0.923566
0.825603 0.3071 0.47336
-0.886527 0.462524 0.0119204
-0.487547 -0.37628 0.787852
0.32866 0.938749 0.103599
0.417879 0.767209 -0.486589
0.87156 -0.0796867 -0.483769
0.658064 -0.218952 0.720425
0.0261578 -0.011852 0.999588
0.0905207 -0.710181 0.698175
0.511764 0.708974 0.485235
-0.671591 0.709176 -0.214559
-0.191156 0.821397 -0.537369
-0.0167033 0.270625 -0.96254
0.438362 0.644939 -0.626013
-0.85842 -0.435175 -0.271548
-0.697377 -0.010679 0.716625
-0.306298 0.68976 0.656059
0.714868 0.325973 0.618632
-0.273687 -0.8386 -0.471005
0.0380704 0.283979 0.958075
-0.150866 0.67217 -0.724863
0.703787 0.277567 0.653942
0.125371 -0.239489 0.962771
-0.126357 0.714444 0.688188
0.646406 0.0626269 0.760419
-0.354898 0.309202 0.882293
0.351955 -0.196781 0.915098
-0.304023 -0.119014 0.945201
0.596586 -0.377863 0.708028
0.774662 0.334448 -0.536698
0.605081 0.0512817 -0.79451
0.426391 -0.842516 0.329177
-0.277492 -0.386305 0.87964
0.414245 0.888939 0.195417
0.28438 0.805222 -0.520332
-0.910489 0.33576 0.241403
0.509802 0.215185 0.832945
-0.679384 -0.114272 -0.724831
0.738829 0.201958 0.642919
-0.414206 -0.223651 0.882277
-0.605125 -0.374336 -0.702635
-0.861504 -0.0408515 0.506105
-0.30659 -0.315317 -0.898097
-0.856759 -0.319892 -0.404516
-0.544757 -0.826407 -0.142449
0.446293 0.70083 0.55647
-0.468149 -0.422917 0.775872
0.239753 -0.546694 -0.802274
0.928702 0.0990637 0.357349
-0.801491 -0.0961196 0.590231
-0.0517713 0.937383 -0.344431
0.0826017 -0.0749156 -0.993763
-0.384299 0.805355 -0.45135
-0.325122 -0.152765 -0.933251
0.508351 -0.839137 0.193462
0.777424 -0.598712 -0.19276
0.521615 -0.634672 0.570183
-0.647921 0.0396747 0.760673
0.641872 0.00479841 -0.766797
0.663318 -0.735281 -0.139181
0.563444 -0.595397 0.572742
0.385583 0.794979 -0.468331
0.45932 -0.35012 0.816358
0.628253 0.520782 0.578001
0.637379 -0.768923 0.0500536
-0.257921 0.0545531 -0.964625
0.736985 -0.100337 0.66842
0.747138 0.0940372 -0.657984
-0.471946 0.460262 0.751948
0.206744 -0.334004 -0.919618
-0.501041 -0.101404 -0.859462
-0.151034 -0.521849 0.839561
-0.169427 0.477471 0.862158
-0.338474 0.03205 0.94043
0.173972 0.756953 -0.629886
-0.10147 0.433649 0.89535
-0.696391 0.232706 -0.678887
-0.0364942 0.713154 -0.700057
0.909309 -0.329468 0.254182
-0.272857 0.160165 -0.948629
-0.292701 -0.306112 0.905882
0.085858 0.921657 -0.378388
0.12534 -0.681881 -0.720644
-0.717385 0.47355 0.510989
0.428968 -0.831878 -0.352087
-0.159151 -0.416223 -0.895226
-0.498505 0.622463 0.603351
0.625009 0.72542 0.288322
0.669316 0.479624 -0.56743
0.228052 0.767954 -0.59853
-0.574521 0.207411 -0.791774
0.171987 0.630419 0.756963
0.48092 -0.549535 0.683175
-0.163602 0.579461 -0.798411
0.407765 -0.910887 0.0633423
0.556646 -0.646367 -0.521876
-0.294539 -0.274199 -0.915457
-0.819896 0.506195 -0.267465
0.0598812 -0.410049 0.910095
0.776288 0.162578 0.609052
-0.851411 -0.357149 -0.384114
0.0604493 -0.515299 0.854876
-0.350438 -0.476568 0.806273
-0.962121 -0.0179271 -0.272032
-0.0661048 -0.169163 0.983369
0.823428 0.468084 -0.320723
-0.334101 0.114532 0.935553
0.825054 -0.268219 0.497337
0.785727 0.166587 0.595719
-0.942851 0.220073 0.250199
0.202507 0.0730996 0.976549
-0.553033 -0.685508 0.473533
-0.781144 0.286056 0.554965
-0.728038 0.643386 0.236677
-0.70764 0.0143915 -0.706427
0.269035 -0.425351 0.864116
-0.28307 0.929364 0.236966
0.70888 -0.0359835 0.70441
-0.12045 -0.198033 -0.972767
0.88317 0.442096 0.156724
0.616892 -0.543823 0.568947
-0.420619 0.27684 0.863967
0.754985 0.348539 -0.555444
0.782562 0.395243 0.481019
-0.470999 0.0610437 -0.880019
0.420418 0.640572 -0.642586
-0.709334 -0.632468 -0.311174
0.178956 -0.402967 0.897548
-0.771994 -0.62171 0.132297
-0.112007 -0.626047 -0.771699
0.501739 -0.634857 -0.58755
-0.0286883 -0.212045 0.976839
0.733994 -0.326383 -0.59559
-0.75182 0.300327 -0.587001
-0.252579 -0.766248 -0.59082
-0.552557 0.764254 -0.332562
0.394006 0.296976 -0.869807
0.243204 0.279756 -0.928756
-0.931037 -0.0661865 -0.358872
0.359462 0.543916 -0.75825
0.68413 -0.30514 0.662462
-0.831507 0.362948 -0.420553
0.15097 -0.0355703 0.987898
-0.519511 0.746621 0.41553
-0.895671 0.436335 0.08594
0.52194 0.613521 -0.592597
0.475042 0.713561 -0.514943
0.438316 0.0364907 0.89808
0.776852 0.0833187 0.624146
-0.015014 0.898319 -0.439088
-0.0127607 -0.962129 0.272297
-0.250906 0.963843 -0.0897361
0.743226 -0.158839 0.649912
-0.630172 0.267848 -0.728794
-0.84093 0.285534 0.459681
0.00962757 0.116528 0.993141
-0.830161 0.440252 0.342069
0.0233671 0.247038 -0.968724
-0.197048 -0.662355 0.722813
-0.0534421 0.708452 0.703733
-0.0064452 -0.87605 -0.482178
-0.242368 0.803642 -0.543523
-0.0127515 -0.250052 0.968148
-0.701324 -0.215536 0.679476
0.0192672 -0.404048 -0.914535
-0.791579 -0.304181 -0.529978
-0.0381769 0.811761 -0.58274
-0.31496 0.449234 0.836056
-0.142453 0.0823739 -0.986368
-0.603855 -0.515206 -0.608212
0.889649 -0.42312 -0.171738
-0.447425 0.166305 0.878723
-0.361862 0.566521 0.740345
0.567044 0.690669 0.448818
-0.439642 -0.339126 0.83169
-0.512744 -0.150472 0.845252
0.441817 0.222132 0.869169
-0.508215 -0.656313 0.557647
0.545321 0.210938 -0.811252
0.411239 -0.358939 0.837881
-0.967356 0.197773 0.158457
-0.62849 -0.469043 0.620482
-0.0688606 -0.630942 -0.772768
-0.451276 0.576119 0.681496
-0.687609 -0.223157 -0.690938
-0.254211 0.705292 0.66177
0.859735 -0.425511 0.282481
-0.467547 -0.465476 -0.751486
-0.229987 0.666006 0.709607
-0.595684 -0.602103 0.531632
-0.0829366 0.483566 -0.87137
0.05124 0.483142 0.874041
-0.379813 -0.453084 -0.806509
0.566174 0.658834 -0.495362
-0.551597 -0.611054 -0.567763