# vtk DataFile Version 3.0.
comment
ASCII

DATASET POLYDATA
POINTS 24822 double
0.102253 0.677731 0.438731
0.10511 0.648212 0.372885
0.098969 0.45656 0.501763
0.0586847 0.53152 0.551623
0.588595 0.606776 0.183384
0.569359 0.554305 0.10443
0.00962749 0.439207 0.545594
0.0522628 0.371553 0.495833
0.15864 0.689735 0.495318
0.22208 0.72055 0.570835
0.20335 0.668775 0.675958
0.147288 0.666025 0.614488
0.420227 0.530091 0.357405
0.389083 0.54291 0.269205
0.132624 0.445155 0.239513
0.0951051 0.349242 0.244145
0.0951051 0.349242 0.244145
0.0573105 0.278935 0.286488
0.40485 0.46812 0.550829
0.426237 0.415651 0.494861
0.573581 0.666435 0.299089
0.525779 0.600949 0.35612
0.629007 0.548128 0.660089
0.634825 0.570857 0.572734
0.00962749 0.439207 0.545594
0.0313642 0.405897 0.625905
0.0689933 0.558176 0.635963
0.0586847 0.53152 0.551623
0.232585 0.194839 0.572465
0.215049 0.276743 0.586998
0.132624 0.445155 0.239513
0.0720209 0.529209 0.286251
0.0720209 0.529209 0.286251
0.133227 0.573228 0.364455
0.683614 0.65424 0.554491
0.741077 0.674304 0.651422
0.0647876 0.648824 0.52377
0.0745195 0.725243 0.60458
0.260412 0.0742589 0.636212
0.331775 0.0797744 0.554453
0.0647876 0.648824 0.52377
0.145159 0.568991 0.4713
0.0647876 0.648824 0.52377
0.123803 0.596857 0.581469
0.279135 0.180945 0.500007
0.26079 0.129012 0.421825
0.0874337 -0.00389661 0.173682
0.0793964 0.0866525 0.237659
0.0874337 -0.00389661 0.173682
0.107049 0.00702577 0.091186
0.434991 0.537691 0.427183
0.499305 0.581378 0.452306
0.543483 0.150571 0.294394
0.551949 0.118402 0.215426
0.00418704 0.581535 0.709237
-0.0154108 0.509164 0.625445
0.419966 0.163529 0.58423
0.396677 0.196631 0.689598
0.713602 0.256267 0.123122
0.682171 0.21429 0.0655181
0.578206 0.328264 0.392878
0.552854 0.403956 0.354279
0.100486 0.390031 0.662743
0.0274301 0.401586 0.710857
0.00850539 0.157726 0.161499
0.114769 0.182084 0.184203
0.630779 0.336819 0.565287
0.620171 0.310897 0.484691
0.0978726 0.389513 0.573012
0.177846 0.398578 0.51778
0.58195 0.244801 0.560938
0.515936 0.176257 0.618705
0.0793964 0.0866525 0.237659
0.158581 0.152145 0.273099
0.366679 0.455243 0.346908
0.392397 0.472907 0.441609
0.417517 0.744192 0.407304
0.411359 0.723138 0.315266
0.0942536 0.0950349 0.117902
0.170967 0.0520004 0.0967381
0.139202 0.105302 0.446891
0.0475992 0.0834704 0.424331
0.0317571 0.164411 0.474121
0.0988054 0.231749 0.426829
0.253159 0.102097 0.309484
0.26079 0.129012 0.421825
0.449633 0.0974094 0.279738
0.437472 0.11447 0.38576
0.00850539 0.157726 0.161499
0.0691258 0.229091 0.0995375
0.0691258 0.229091 0.0995375
0.148621 0.283871 0.15603
0.0512853 0.617076 0.197372
0.0293617 0.676382 0.114076
0.545185 0.683155 0.206348
0.518884 0.635397 0.1307
0.0632539 0.41725 0.320668
0.0888226 0.489079 0.400208
0.166042 0.368471 0.333099
0.0632539 0.41725 0.320668
0.0602002 0.877665 0.367979
0.0919696 0.956434 0.338279
0.58195 0.244801 0.560938
0.606952 0.208231 0.652771
0.0555485 0.34208 0.102438
0.140168 0.302487 0.0529595
0.271789 0.171067 0.680158
0.324571 0.227925 0.600562
0.098969 0.45656 0.501763
0.0888226 0.489079 0.400208
0.419544 0.434857 0.23725
0.450103 0.503053 0.210482
0.098969 0.45656 0.501763
0.164255 0.506302 0.579259
0.516782 0.413786 0.475909
0.47891 0.406477 0.566232
0.0639047 0.310272 0.741111
0.130009 0.30784 0.683292
0.252857 0.201774 0.251551
0.299416 0.206852 0.155061
0.195882 0.51962 0.270896
0.236004 0.621259 0.281955
0.100486 0.390031 0.662743
0.130009 0.30784 0.683292
0.0522628 0.371553 0.495833
0.114685 0.389915 0.430225
0.00850539 0.157726 0.161499
0.0942536 0.0950349 0.117902
0.0563755 0.19407 0.27055
0.0884169 0.233152 0.341824
0.261012 1.38453 0.199409
0.256848 1.40212 0.10771
0.0613652 0.787301 0.339148
0.0602002 0.877665 0.367979
0.534412 0.745547 0.670916
0.448431 0.670443 0.664241
0.0602002 0.877665 0.367979
0.0390263 0.808443 0.423531
0.576685 0.587052 0.425996
0.57246 0.683467 0.419435
0.0525795 0.915135 0.272474
0.0602002 0.877665 0.367979
0.065378 0.729925 -0.00314106
0.174688 0.710979 0.0327647
0.00850539 0.157726 0.161499
0.0351774 0.268674 0.195316
0.0807492 0.472652 0.640583
0.0689933 0.558176 0.635963
0.164255 0.506302 0.579259
0.0807492 0.472652 0.640583
0.165816 0.456446 0.70061
0.0807492 0.472652 0.640583
0.0888226 0.489079 0.400208
0.145159 0.568991 0.4713
0.0888226 0.489079 0.400208
0.133227 0.573228 0.364455
0.191215 0.459788 0.435098
0.0888226 0.489079 0.400208
0.758852 -0.000368593 0.496172
0.677319 -0.0080558 0.464835
0.130009 0.30784 0.683292
0.0634494 0.245175 0.671895
0.0758268 0.0850062 0.642089
0.163789 0.141656 0.627524
0.368289 0.346222 0.483685
0.335364 0.430017 0.51956
0.0988054 0.231749 0.426829
0.181882 0.205424 0.487955
0.226524 0.626784 0.0217944
0.248822 0.673266 0.10487
0.100486 0.390031 0.662743
0.165816 0.456446 0.70061
0.482759 0.378666 0.141195
0.398745 0.387406 0.157008
0.504655 0.374781 0.401037
0.516782 0.413786 0.475909
0.34198 0.370726 0.0181802
0.329437 0.405212 0.103652
0.657717 0.0702333 0.42142
0.590616 0.0890432 0.470017
0.189501 0.626974 0.54874
0.145159 0.568991 0.4713
0.145159 0.568991 0.4713
0.199252 0.657865 0.401197
0.154518 0.538634 0.0662323
0.198002 0.594485 0.161919
0.0739203 0.633106 0.619926
0.123803 0.596857 0.581469
0.100486 0.390031 0.662743
0.0978726 0.389513 0.573012
0.243614 0.248824 0.656125
0.215049 0.276743 0.586998
0.0689933 0.558176 0.635963
0.122561 0.613442 0.704107
0.0534307 0.877933 1.09489
0.0903362 0.955161 1.06738
0.20335 0.668775 0.675958
0.122561 0.613442 0.704107
0.198 0.595146 0.629882
0.122561 0.613442 0.704107
0.392142 0.597957 0.480518
0.350097 0.513684 0.501871
0.0649409 0.786987 1.0711
0.0534307 0.877933 1.09489
0.415366 0.187998 0.480694
0.419966 0.163529 0.58423
0.44692 0.128882 0.0510113
0.456753 0.10603 -0.0540719
0.20869 0.202895 0.165474
0.148621 0.283871 0.15603
0.701453 0.739375 0.0348925
0.729824 0.765283 -0.0476673
0.717171 0.438052 0.141088
0.778127 0.434536 0.218214
0.207332 0.471508 0.159571
0.154518 0.538634 0.0662323
0.0725254 0.465636 0.119574
0.0386785 0.572425 0.0857014
0.707393 0.41985 0.654502
0.711692 0.347711 0.681721
1.18923 0.127202 0.055515
1.19489 0.108063 -0.050639
0.20869 0.202895 0.165474
0.160552 0.171934 0.0949029
0.102253 0.677731 0.438731
0.15864 0.689735 0.495318
0.15776 0.420704 0.0740807
0.133336 0.390132 0.160455
0.15776 0.420704 0.0740807
0.104661 0.378219 0.0156819
0.174988 0.184614 0.368676
0.152119 0.0875958 0.336084
0.130009 0.30784 0.683292
0.179695 0.218273 0.722948
0.192152 0.371488 0.622087
0.130009 0.30784 0.683292
0.87919 0.442277 0.968233
0.889403 0.464783 1.05313
0.0758268 0.0850062 0.642089
0.0290185 0.0953026 0.711149
0.191215 0.459788 0.435098
0.114685 0.389915 0.430225
0.196145 0.316501 0.445551
0.114685 0.389915 0.430225
0.683614 0.65424 0.554491
0.638502 0.635598 0.639662
0.191215 0.459788 0.435098
0.177846 0.398578 0.51778
0.192152 0.371488 0.622087
0.177846 0.398578 0.51778
0.141426 0.309277 0.540746
0.132625 0.244958 0.611238
0.132625 0.244958 0.611238
0.130009 0.30784 0.683292
0.678095 0.60681 0.0983748
0.596268 0.671047 0.0899792
0.159584 0.0267005 0.658893
0.131535 0.0578842 0.560551
0.131535 0.0578842 0.560551
0.225233 0.104165 0.529718
0.132624 0.445155 0.239513
0.133336 0.390132 0.160455
0.640294 0.272086 0.750886
0.610651 0.18042 0.74943
0.481912 0.490678 0.575743
0.416139 0.491589 0.651292
0.313402 0.517489 0.697411
0.244401 0.486126 0.643928
0.170904 0.690051 0.214189
0.152277 0.775914 0.170649
0.171812 0.715586 0.125378
0.152277 0.775914 0.170649
0.564104 0.50218 0.00766466
0.501723 0.462047 0.0882579
0.0793964 0.0866525 0.237659
-0.0114972 0.122497 0.287988
0.0613978 0.153133 1.09593
0.0925966 0.233473 1.0696
0.227365 0.548846 0.368358
0.133227 0.573228 0.364455
0.170904 0.690051 0.214189
0.184999 0.721915 0.312466
0.0630429 0.061507 1.07102
0.0613978 0.153133 1.09593
0.189501 0.626974 0.54874
0.123803 0.596857 0.581469
0.680311 0.211692 0.693394
0.730006 0.250177 0.630874
0.0317571 0.164411 0.474121
0.0543796 0.153603 0.366193
0.152246 0.255418 0.272692
0.0884169 0.233152 0.341824
0.154518 0.538634 0.0662323
0.0725254 0.465636 0.119574
0.209383 0.101649 0.0178008
0.170967 0.0520004 0.0967381
0.0613978 0.153133 1.09593
0.042635 0.0840843 1.15258
0.164255 0.506302 0.579259
0.253414 0.523742 0.501299
0.0580307 0.192342 1.00089
0.0613978 0.153133 1.09593
0.164255 0.506302 0.579259
0.244401 0.486126 0.643928
0.163789 0.141656 0.627524
0.179695 0.218273 0.722948
0.163789 0.141656 0.627524
0.225233 0.104165 0.529718
0.260412 0.0742589 0.636212
0.163789 0.141656 0.627524
0.0608976 1.04112 0.373019
0.148929 0.997444 0.367874
0.189501 0.626974 0.54874
0.198 0.595146 0.629882
0.271789 0.171067 0.680158
0.179695 0.218273 0.722948
0.0416983 0.302316 0.570092
0.0183558 0.271174 0.472517
0.0608976 1.04112 0.373019
0.117605 1.11631 0.426934
0.313402 0.517489 0.697411
0.288398 0.621034 0.672257
0.195882 0.51962 0.270896
0.143957 0.465961 0.324665
0.565939 0.259138 0.701364
0.606952 0.208231 0.652771
0.229293 0.335639 0.00108275
0.140168 0.302487 0.0529595
0.0608976 1.04112 0.373019
0.0919696 0.956434 0.338279
0.582053 0.229989 0.438363
0.620171 0.310897 0.484691
0.486006 0.186453 0.223772
0.466075 0.203653 0.124463
0.586095 0.418345 0.552374
0.573871 0.509311 0.483575
0.348161 0.0548522 0.285702
0.317326 0.0503649 0.37913
0.736108 0.577052 0.509845
0.676834 0.508371 0.528548
0.0647876 0.648824 0.52377
0.0833851 0.745405 0.480814
0.189501 0.626974 0.54874
0.15864 0.689735 0.495318
0.181882 0.205424 0.487955
0.225233 0.104165 0.529718
0.232585 0.194839 0.572465
0.181882 0.205424 0.487955
0.0608976 1.04112 0.373019
0.0980317 0.953536 0.423613
0.15864 0.689735 0.495318
0.199252 0.657865 0.401197
0.0608976 1.04112 0.373019
0.0621899 0.999929 0.286568
0.692835 0.226488 0.931455
0.692673 0.225398 1.03168
0.0608976 1.04112 0.373019
0.0650331 1.13952 0.318939
0.154518 0.538634 0.0662323
0.0386785 0.572425 0.0857014
0.717171 0.438052 0.141088
0.690018 0.41559 0.21272
0.220377 0.547246 0.704583
0.165816 0.456446 0.70061
0.192152 0.371488 0.622087
[...]
CELL_DATA 12411

SCALARS kn double 1
LOOKUP_TABLE default
3.47395e+06
4.74607e+06
4.48516e+06
4.49064e+06
4.88263e+06
3.98449e+06
4.32637e+06
4.95662e+06
4.17889e+06
3.82381e+06
4.75946e+06
4.17218e+06
4.21536e+06
4.24102e+06
4.08889e+06
5.37318e+06
5.03427e+06
5.45626e+06
5.32398e+06
5.21756e+06
5.99113e+06
4.37467e+06
4.43435e+06
5.19354e+06
4.08395e+06
3.85466e+06
4.05249e+06
5.40867e+06
5.41669e+06
3.75338e+06
4.15548e+06
4.23241e+06
5.29546e+06
4.10252e+06
4.68718e+06
5.2566e+06
5.0272e+06
4.71552e+06
4.52065e+06
4.19469e+06
4.4629e+06
5.06762e+06
5.57166e+06
5.10389e+06
5.34869e+06
5.33392e+06
4.82741e+06
4.44212e+06
5.30552e+06
5.47596e+06
4.20564e+06
4.60121e+06
4.94983e+06
5.30017e+06
5.13773e+06
3.77631e+06
5.35496e+06
4.73712e+06
4.18302e+06
5.14534e+06
5.27388e+06
4.30486e+06
4.41609e+06
5.4933e+06
4.11108e+06
4.37282e+06
4.50311e+06
5.41056e+06
4.27888e+06
4.32388e+06
4.93481e+06
5.5982e+06
5.7206e+06
4.13215e+06
5.12885e+06
4.98766e+06
5.79891e+06
4.80524e+06
5.38448e+06
4.11372e+06
4.41049e+06
4.93957e+06
4.64341e+06
5.06986e+06
4.64327e+06
4.69695e+06
4.02624e+06
3.99673e+06
4.32222e+06
4.07789e+06
4.92873e+06
6.03492e+06
5.69093e+06
3.49274e+06
4.29745e+06
3.79177e+06
4.70877e+06
4.20564e+06
4.63558e+06
5.00977e+06
4.51683e+06
4.50311e+06
5.11039e+06
5.18839e+06
4.674e+06
4.21739e+06
4.667e+06
6.0888e+06
5.63265e+06
3.71722e+06
5.18839e+06
4.32674e+06
3.8373e+06
4.55893e+06
4.29656e+06
4.97631e+06
5.21781e+06
5.13451e+06
4.18658e+06
4.04467e+06
4.97554e+06
5.26094e+06
4.39937e+06
4.97376e+06
5.17917e+06
4.61255e+06
4.60352e+06
5.02312e+06
5.10641e+06
5.1997e+06
4.62369e+06
4.62253e+06
4.39846e+06
4.43967e+06
4.61204e+06
3.73536e+06
5.25327e+06
5.11187e+06
4.20564e+06
4.63715e+06
4.97897e+06
4.50311e+06
3.77976e+06
4.25257e+06
5.31123e+06
4.4145e+06
5.85401e+06
4.49253e+06
4.27888e+06
5.73831e+06
4.93481e+06
4.86477e+06
5.93979e+06
5.8398e+06
5.67141e+06
4.52352e+06
4.21201e+06
5.33481e+06
5.03473e+06
5.17743e+06
5.23944e+06
4.32414e+06
3.91225e+06
5.03716e+06
4.4097e+06
4.78059e+06
4.96059e+06
5.49358e+06
4.73632e+06
4.40087e+06
5.04606e+06
4.2302e+06
5.65523e+06
4.6212e+06
5.1224e+06
5.01994e+06
4.3401e+06
4.3971e+06
5.38306e+06
5.86062e+06
3.79672e+06
5.03881e+06
5.70226e+06
4.73756e+06
5.07e+06
5.17394e+06
4.39595e+06
4.9896e+06
5.33029e+06
5.46332e+06
5.17743e+06
5.23771e+06
4.32717e+06
5.50418e+06
5.48753e+06
4.1547e+06
4.40121e+06
4.4097e+06
3.94183e+06
5.28982e+06
4.3401e+06
5.38306e+06
4.11418e+06
4.7322e+06
4.24902e+06
4.646e+06
5.26915e+06
4.11417e+06
5.37546e+06
4.7012e+06
5.57021e+06
5.96488e+06
4.98199e+06
4.52352e+06
5.52796e+06
5.25513e+06
5.84499e+06
3.85376e+06
4.72023e+06
4.68058e+06
4.8229e+06
4.64014e+06
4.22476e+06
5.87304e+06
4.80649e+06
5.59833e+06
4.06474e+06
4.27604e+06
5.30605e+06
5.57178e+06
4.31807e+06
4.85572e+06
4.61362e+06
4.15296e+06
5.17743e+06
4.51344e+06
3.73636e+06
4.51817e+06
4.4097e+06
3.57496e+06
4.28075e+06
5.1224e+06
4.58713e+06
5.38663e+06
4.3401e+06
5.37082e+06
5.13924e+06
4.40043e+06
4.8727e+06
4.49239e+06
4.56288e+06
5.88061e+06
5.78107e+06
4.35596e+06
5.28776e+06
5.02292e+06
4.56904e+06
4.69942e+06
4.62382e+06
5.38306e+06
3.56398e+06
4.48477e+06
4.16114e+06
5.05413e+06
5.54621e+06
4.20564e+06
5.07199e+06
5.83967e+06
5.70408e+06
3.97025e+06
3.83559e+06
4.28137e+06
5.10289e+06
3.56398e+06
4.87652e+06
4.7092e+06
5.06106e+06
5.05634e+06
4.34488e+06
3.56398e+06
5.47722e+06
4.16415e+06
5.23564e+06
5.64457e+06
5.38306e+06
4.3401e+06
5.35775e+06
4.695e+06
3.56398e+06
4.86742e+06
4.8004e+06
5.48491e+06
4.59775e+06
4.98366e+06
4.34232e+06
4.05181e+06
4.53703e+06
4.18658e+06
5.00342e+06
4.8484e+06
4.31438e+06
5.88621e+06
5.35723e+06
5.19613e+06
5.81184e+06
4.63345e+06
4.80367e+06
4.71578e+06
5.22699e+06
4.01508e+06
4.96325e+06
4.48449e+06
5.18628e+06
5.19439e+06
3.51079e+06
5.40569e+06
4.85083e+06
5.66582e+06
6.00682e+06
4.31807e+06
3.70851e+06
4.59775e+06
4.71285e+06
5.49245e+06
4.38046e+06
4.37337e+06
4.07149e+06
5.13088e+06
5.05567e+06
5.10662e+06
4.63589e+06
4.90969e+06
5.27304e+06
4.37453e+06
4.63345e+06
4.4573e+06
4.96325e+06
5.12843e+06
4.1349e+06
3.51695e+06
4.39389e+06
4.59775e+06
4.31807e+06
4.95435e+06
5.85189e+06
4.93826e+06
4.95968e+06
4.45812e+06
4.49432e+06
4.45371e+06
4.75109e+06
4.83412e+06
4.33596e+06
4.69075e+06
4.96303e+06
4.0853e+06
4.08821e+06
4.47026e+06
4.0991e+06
4.20155e+06
4.98366e+06
4.18351e+06
4.90969e+06
4.24393e+06
4.74701e+06
4.80044e+06
4.4451e+06
3.85212e+06
3.92418e+06
4.63345e+06
4.31205e+06
4.96325e+06
4.38588e+06
5.24328e+06
5.61684e+06
4.41574e+06
4.74172e+06
5.3638e+06
4.05328e+06
3.86978e+06
5.7922e+06
4.3645e+06
5.33818e+06
6.1008e+06
5.74758e+06
5.20748e+06
4.80577e+06
4.94314e+06
4.74388e+06
4.14654e+06
5.08747e+06
4.67273e+06
4.20416e+06
4.27908e+06
5.31587e+06
4.59775e+06
4.8018e+06
5.52895e+06
4.2758e+06
4.91479e+06
4.55873e+06
4.61927e+06
5.24919e+06
5.56699e+06
4.33892e+06
4.38934e+06
4.74462e+06
4.73801e+06
5.10895e+06
5.30827e+06
4.11289e+06
4.71549e+06
4.63551e+06
5.87013e+06
5.54983e+06
5.60318e+06
4.21773e+06
4.35526e+06
4.34734e+06
5.00016e+06
4.78908e+06
4.76662e+06
4.07979e+06
5.54572e+06
4.91161e+06
5.70517e+06
5.01751e+06
4.91853e+06
4.42387e+06
5.32659e+06
5.96936e+06
5.80223e+06
5.8399e+06
4.88639e+06
4.61927e+06
4.16938e+06
4.43612e+06
5.29581e+06
4.70199e+06
3.6776e+06
5.35913e+06
5.11182e+06
4.28137e+06
4.01112e+06
4.22176e+06
4.40708e+06
5.57526e+06
3.91358e+06
4.60594e+06
4.75254e+06
5.04273e+06
5.05524e+06
4.59439e+06
4.81997e+06
5.68384e+06
4.63555e+06
5.56936e+06
4.29215e+06
5.73776e+06
4.88093e+06
5.17438e+06
5.51864e+06
3.68361e+06
4.21739e+06
4.62481e+06
4.88362e+06
4.78908e+06
4.43891e+06
3.78668e+06
4.70609e+06
4.66945e+06
4.94983e+06
4.77798e+06
4.28294e+06
5.17261e+06
5.08915e+06
4.49975e+06
4.0831e+06
6.07717e+06
4.17075e+06
4.81338e+06
4.60286e+06
4.85883e+06
3.72881e+06
5.81745e+06
4.1255e+06
4.88532e+06
4.42873e+06
3.4607e+06
5.97005e+06
5.05788e+06
5.87013e+06
6.1048e+06
4.68316e+06
5.26207e+06
4.31497e+06
5.16105e+06
4.34657e+06
4.81596e+06
5.99444e+06
4.47473e+06
4.72048e+06
4.61927e+06
5.35913e+06
5.31291e+06
5.36407e+06
5.43286e+06
5.3172e+06
5.22993e+06
5.10895e+06
5.57172e+06
5.87013e+06
3.99695e+06
5.63811e+06
5.18502e+06
4.43494e+06
4.8779e+06
4.61927e+06
4.7711e+06
4.36607e+06
5.35913e+06
4.1437e+06
3.97166e+06
5.18166e+06
4.39617e+06
3.66739e+06
4.7667e+06
5.11836e+06
4.22811e+06
5.40931e+06
5.24136e+06
4.58692e+06
3.84015e+06
4.11289e+06
4.06738e+06
5.66404e+06
4.0323e+06
4.11886e+06
4.85099e+06
4.63616e+06
5.74282e+06
3.62427e+06
4.18658e+06
4.30543e+06
5.46118e+06
4.2834e+06
5.9941e+06
3.84015e+06
4.11289e+06
4.46054e+06
4.0323e+06
4.2101e+06
3.68124e+06
4.44813e+06
4.24822e+06
5.4097e+06
3.84015e+06
4.11289e+06
3.63678e+06
5.32768e+06
4.94143e+06
4.0323e+06
5.58866e+06
4.25785e+06
5.71635e+06
5.88637e+06
5.44044e+06
3.89995e+06
4.67832e+06
5.15695e+06
4.64488e+06
4.40776e+06
4.0397e+06
5.19283e+06
4.06815e+06
4.14834e+06
5.30243e+06
4.76812e+06
5.11615e+06
5.15593e+06
4.55531e+06
4.05638e+06
5.46226e+06
4.05583e+06
3.86793e+06
4.08345e+06
4.23856e+06
4.98049e+06
5.10895e+06
4.46672e+06
4.15656e+06
3.77566e+06
4.58102e+06
4.30559e+06
4.69884e+06
4.709e+06
4.81051e+06
4.1206e+06
5.26565e+06
4.42323e+06
3.88098e+06
4.46203e+06
4.66613e+06
4.63019e+06
5.11615e+06
4.19663e+06
6.00683e+06
6.0955e+06
4.89265e+06
5.84062e+06
4.45247e+06
4.91739e+06
4.25744e+06
4.42394e+06
3.81394e+06
4.98366e+06
4.06397e+06
4.97202e+06
5.14512e+06
4.65677e+06
4.8797e+06
5.72474e+06
3.92703e+06
5.28406e+06
4.8433e+06
3.73726e+06
4.64687e+06
5.4818e+06
4.73668e+06
5.53269e+06
5.67455e+06
5.11615e+06
6.00683e+06
5.06894e+06
5.15956e+06
3.61043e+06
6.0955e+06
3.94241e+06
4.09947e+06
4.67985e+06
4.20765e+06
5.00341e+06
5.96729e+06
4.98049e+06
5.16097e+06
4.25239e+06
4.23281e+06
6.04664e+06
5.48492e+06
4.93325e+06
5.77045e+06
5.90653e+06
5.10937e+06
5.53269e+06
5.76264e+06
5.11615e+06
4.9746e+06
5.56014e+06
4.19154e+06
6.00683e+06
6.0955e+06
3.90067e+06
4.40347e+06
4.04467e+06
4.12931e+06
4.42201e+06
4.75677e+06
4.83623e+06
5.09246e+06
4.69266e+06
4.66372e+06
4.45104e+06
5.23226e+06
5.25896e+06
5.04079e+06
5.95243e+06
5.52177e+06
5.95981e+06
4.66004e+06
4.04467e+06
4.99008e+06
4.28765e+06
5.45618e+06
5.48145e+06
4.46107e+06
4.30826e+06
3.76265e+06
4.64289e+06
4.47181e+06
5.5693e+06
4.03729e+06
4.19106e+06
4.8536e+06
4.4966e+06
3.59114e+06
4.31807e+06
4.79479e+06
4.89229e+06
3.88535e+06
5.64101e+06
5.10566e+06
5.64722e+06
5.99118e+06
3.66179e+06
3.81663e+06
4.11358e+06
4.58894e+06
4.04467e+06
4.26187e+06
5.30014e+06
4.93211e+06
4.4823e+06
5.37127e+06
4.43154e+06
4.28615e+06
4.14828e+06
4.66372e+06
4.98541e+06
5.05422e+06
5.40735e+06
4.17519e+06
4.27001e+06
5.61756e+06
5.41578e+06
4.59077e+06
4.35008e+06
4.2048e+06
5.22831e+06
4.62413e+06
4.80128e+06
5.34381e+06
5.4381e+06
4.66372e+06
4.95851e+06
4.59022e+06
4.69089e+06
4.44313e+06
5.58418e+06
4.45474e+06
4.04373e+06
4.2344e+06
4.57242e+06
5.08328e+06
5.08031e+06
4.51579e+06
4.49692e+06
4.7367e+06
4.74749e+06
4.39674e+06
4.71536e+06
4.92993e+06
4.34695e+06
4.41656e+06
5.57024e+06
4.4209e+06
5.88621e+06
4.14066e+06
4.63943e+06
3.86761e+06
4.23441e+06
5.44703e+06
3.87313e+06
4.50311e+06
4.98049e+06
3.67803e+06
4.73117e+06
4.43411e+06
4.82742e+06
3.79982e+06
5.57365e+06
4.39887e+06
4.3847e+06
4.17049e+06
5.57914e+06
5.1382e+06
5.8377e+06
5.51191e+06
4.51871e+06
5.58611e+06
6.15264e+06
5.42001e+06
4.23441e+06
5.28135e+06
4.60245e+06
4.3748e+06
4.49878e+06
4.1523e+06
4.51607e+06
4.06817e+06
4.41395e+06
4.82742e+06
5.61165e+06
4.66647e+06
5.6315e+06
5.56446e+06
4.60299e+06
4.72188e+06
5.66083e+06
3.73369e+06
4.23441e+06
4.00853e+06
5.0706e+06
5.26185e+06
4.60584e+06
4.33377e+06
5.17059e+06
4.47818e+06
5.30032e+06
5.23263e+06
4.66395e+06
4.80825e+06
4.5149e+06
4.65352e+06
4.89054e+06
3.67803e+06
4.8419e+06
4.82742e+06
4.05142e+06
3.49868e+06
5.09634e+06
5.11732e+06
4.4571e+06
4.29597e+06
4.74371e+06
4.76417e+06
5.05607e+06
4.2323e+06
4.83749e+06
5.43096e+06
5.18839e+06
4.43246e+06
3.85974e+06
4.65052e+06
4.10121e+06
4.19176e+06
4.83749e+06
4.32063e+06
4.88947e+06
4.77203e+06
5.49739e+06
4.96299e+06
4.77345e+06
5.22109e+06
5.12398e+06
5.10347e+06
4.83749e+06
4.13252e+06
4.93672e+06
4.39807e+06
4.54075e+06
3.64285e+06
5.47845e+06
5.17743e+06
4.79179e+06
3.63663e+06
5.43681e+06
4.73281e+06
4.17976e+06
4.58383e+06
5.05209e+06
5.03321e+06
3.93078e+06
3.92925e+06
4.81674e+06
5.40821e+06
4.53749e+06
3.95581e+06
5.98909e+06
5.33173e+06
5.3712e+06
5.00146e+06
5.19008e+06
5.98909e+06
5.35989e+06
4.69144e+06
5.13877e+06
4.79627e+06
4.30047e+06
5.45533e+06
5.18502e+06
6.0715e+06
4.05251e+06
4.50313e+06
4.15358e+06
4.8779e+06
4.92832e+06
5.41746e+06
4.49444e+06
5.69884e+06
4.89413e+06
3.99879e+06
5.06999e+06
5.57521e+06
4.17165e+06
4.98397e+06
4.14762e+06
4.44088e+06
5.22339e+06
5.42394e+06
4.96573e+06
5.59955e+06
4.94143e+06
5.09975e+06
4.36394e+06
4.33164e+06
4.77456e+06
4.88972e+06
4.54813e+06
4.66888e+06
5.41792e+06
4.18658e+06
4.65955e+06
4.35366e+06
5.45047e+06
4.52318e+06
4.58555e+06
5.98909e+06
4.74353e+06
5.54894e+06
5.02563e+06
4.7821e+06
4.42924e+06
5.18062e+06
5.18502e+06
4.42274e+06
5.28099e+06
4.19054e+06
5.28898e+06
5.47272e+06
5.22449e+06
4.75689e+06
5.01321e+06
4.3927e+06
4.8779e+06
5.43323e+06
4.27146e+06
4.17215e+06
4.56128e+06
4.72479e+06
4.96573e+06
5.29381e+06
5.87012e+06
5.24581e+06
4.05278e+06
4.71279e+06
4.89001e+06
4.69378e+06
4.94143e+06
5.41792e+06
3.58146e+06
5.98909e+06
4.55469e+06
5.18502e+06
5.21637e+06
5.51767e+06
4.72441e+06
4.8779e+06
4.75615e+06
5.73956e+06
5.40975e+06
4.74796e+06
4.05739e+06
4.96573e+06
4.66018e+06
3.56346e+06
5.09824e+06
4.94143e+06
5.41792e+06
4.3493e+06
4.412e+06
5.4153e+06
4.25496e+06
4.24299e+06
4.23242e+06
4.83954e+06
4.35323e+06
4.5114e+06
3.74272e+06
4.0323e+06
4.2716e+06
4.31624e+06
4.37282e+06
4.41849e+06
4.47083e+06
4.63179e+06
5.47819e+06
4.8433e+06
4.66402e+06
4.16592e+06
4.18653e+06
4.19527e+06
4.25496e+06
4.05328e+06
4.24299e+06
4.23242e+06
5.02515e+06
4.61497e+06
5.27602e+06
3.9017e+06
5.73969e+06
4.19935e+06
4.33099e+06
4.31991e+06
5.10814e+06
4.52856e+06
3.57352e+06
4.43162e+06
4.9271e+06
5.31017e+06
4.8433e+06
4.25496e+06
5.54207e+06
4.91744e+06
4.78084e+06
3.96156e+06
4.24299e+06
5.1422e+06
5.26342e+06
4.11398e+06
5.4614e+06
3.89575e+06
4.73973e+06
4.59648e+06
5.08293e+06
4.67797e+06
4.8433e+06
4.17313e+06
4.25496e+06
3.79944e+06
4.01458e+06
4.19872e+06
4.63398e+06
3.98911e+06
6.04549e+06
4.05328e+06
4.03067e+06
4.20101e+06
5.71198e+06
5.96102e+06
4.29549e+06
4.42036e+06
5.59199e+06
5.95876e+06
4.62589e+06
5.43833e+06
4.14797e+06
5.03461e+06
4.24976e+06
4.05805e+06
3.52229e+06
3.52334e+06
4.38091e+06
4.26171e+06
5.18454e+06
4.17952e+06
4.81353e+06
6.01959e+06
4.00582e+06
4.03067e+06
4.59407e+06
5.19088e+06
4.43742e+06
4.2955e+06
5.70461e+06
5.33944e+06
5.43029e+06
4.62589e+06
3.52334e+06
4.03067e+06
5.62752e+06
4.71241e+06
3.74654e+06
4.2955e+06
4.07034e+06
4.62589e+06
3.52334e+06
4.03067e+06
5.83389e+06
4.81483e+06
5.96347e+06
5.55361e+06
4.49298e+06
5.39775e+06
5.75502e+06
4.11473e+06
4.10709e+06
3.96152e+06
4.2955e+06
4.96325e+06
5.26547e+06
4.62589e+06
4.93799e+06
4.54961e+06
3.52334e+06
5.86062e+06
5.34207e+06
4.56421e+06
5.69241e+06
5.59393e+06
5.37082e+06
5.02571e+06
4.88356e+06
4.31266e+06
5.63265e+06
3.83623e+06
5.54047e+06
5.17935e+06
4.68502e+06
5.81745e+06
4.21593e+06
4.72133e+06
4.35606e+06
5.37643e+06
4.46709e+06
4.25473e+06
4.90691e+06
4.50685e+06
5.37954e+06
3.68617e+06
5.64206e+06
5.08604e+06
5.237e+06
4.6997e+06
4.44151e+06
4.55554e+06
5.60046e+06
5.37082e+06
5.02824e+06
4.92241e+06
4.27888e+06
5.0011e+06
5.63265e+06
5.12878e+06
4.70731e+06
4.90614e+06
4.78908e+06
4.94249e+06
5.25717e+06
4.76248e+06
4.45907e+06
5.73983e+06
5.73518e+06
5.43912e+06
5.81745e+06
4.03525e+06
5.14403e+06
5.14222e+06
5.86062e+06
3.54472e+06
4.42048e+06
3.90796e+06
5.78186e+06
5.37082e+06
4.58462e+06
5.63265e+06
4.34668e+06
4.79715e+06
4.1735e+06
4.93478e+06
4.92493e+06
4.32969e+06
4.46623e+06
4.25844e+06
4.08252e+06
4.66354e+06
4.15816e+06
4.53645e+06
4.42373e+06
5.43912e+06
4.16215e+06
4.87007e+06
5.81745e+06
4.72728e+06
4.00333e+06
4.51336e+06
5.04586e+06
5.01723e+06
4.72857e+06
5.29275e+06
5.17659e+06
5.00678e+06
3.60071e+06
5.43912e+06
5.15651e+06
4.92129e+06
5.26018e+06
3.72471e+06
4.14729e+06
5.22009e+06
4.64522e+06
5.70372e+06
5.3712e+06
4.30047e+06
5.22009e+06
4.3689e+06
4.42163e+06
4.48514e+06
4.4097e+06
4.27234e+06
4.95338e+06
5.16097e+06
4.60441e+06
4.51593e+06
5.73437e+06
5.65467e+06
4.72302e+06
4.05127e+06
4.72453e+06
5.4785e+06
4.63112e+06
4.87024e+06
4.99924e+06
5.24154e+06
4.32738e+06
4.53576e+06
3.71315e+06
5.73255e+06
4.55214e+06
3.46884e+06
4.78629e+06
4.57832e+06
4.34237e+06
5.51047e+06
4.45439e+06
5.18404e+06
5.82978e+06
3.85007e+06
5.3712e+06
5.22797e+06
4.30047e+06
5.22009e+06
6.0955e+06
4.97178e+06
5.16097e+06
5.73255e+06
5.13112e+06
4.0628e+06
4.20413e+06
3.84015e+06
4.70317e+06
5.14015e+06
5.16938e+06
5.3712e+06
4.13794e+06
4.99535e+06
4.30047e+06
5.31163e+06
3.57552e+06
5.22009e+06
5.84354e+06
4.79512e+06
4.33759e+06
5.16097e+06
5.73255e+06
5.5759e+06
4.2032e+06
3.62539e+06
3.80547e+06
4.82815e+06
4.17174e+06
4.99237e+06
4.8113e+06
4.58477e+06
4.46957e+06
4.63345e+06
4.90869e+06
4.40196e+06
5.02323e+06
5.43146e+06
4.85319e+06
4.54788e+06
3.838e+06
5.00248e+06
3.62539e+06
4.71623e+06
3.80547e+06
4.65978e+06
4.17174e+06
4.87352e+06
4.18775e+06
5.81279e+06
4.13125e+06
4.18906e+06
5.36537e+06
4.09393e+06
3.92861e+06
5.372e+06
4.48275e+06
4.58478e+06
3.62539e+06
4.53049e+06
5.04059e+06
4.60117e+06
4.81332e+06
4.84452e+06
4.27482e+06
3.93644e+06
3.80547e+06
4.95399e+06
3.54919e+06
4.20955e+06
4.1872e+06
4.17174e+06
4.60964e+06
4.52352e+06
4.29767e+06
4.58478e+06
5.74302e+06
4.76411e+06
3.70526e+06
5.65028e+06
4.71183e+06
5.72238e+06
3.62539e+06
4.34897e+06
4.83749e+06
5.25832e+06
5.33889e+06
3.62708e+06
5.24831e+06
5.38912e+06
3.80547e+06
4.08356e+06
4.34807e+06
4.58478e+06
4.89272e+06
5.19763e+06
4.8953e+06
3.79947e+06
4.27085e+06
4.39195e+06
5.29766e+06
5.21032e+06
4.44223e+06
4.05052e+06
4.80552e+06
5.14411e+06
3.83424e+06
5.11248e+06
4.59152e+06
4.95577e+06
4.39891e+06
3.79817e+06
4.46226e+06
5.52782e+06
4.05074e+06
5.54318e+06
4.6553e+06
4.59932e+06
4.96573e+06
4.18196e+06
4.07171e+06
4.6539e+06
3.42303e+06
5.35974e+06
5.11452e+06
4.51974e+06
4.03766e+06
3.75107e+06
4.06455e+06
4.33417e+06
4.26238e+06
4.33843e+06
5.17488e+06
5.20259e+06
5.6458e+06
5.74759e+06
4.54198e+06
5.56707e+06
3.96751e+06
4.75713e+06
4.33436e+06
3.976e+06
4.21739e+06
4.35584e+06
5.42394e+06
4.05052e+06
4.11108e+06
3.63992e+06
5.42394e+06
4.05052e+06
4.11108e+06
4.81241e+06
5.42394e+06
4.05052e+06
4.11108e+06
4.81241e+06
5.18839e+06
4.1127e+06
4.0207e+06
4.32818e+06
4.1127e+06
3.91422e+06
4.0207e+06
4.32818e+06
4.1127e+06
4.0207e+06
4.32818e+06
4.1127e+06
3.91422e+06
4.0207e+06
4.32818e+06
5.93303e+06
4.69117e+06
5.67071e+06
5.5982e+06
5.93302e+06
4.69117e+06
4.58218e+06
5.67071e+06
5.5982e+06
5.93303e+06
4.69117e+06
4.58218e+06
5.67071e+06
5.5982e+06
5.93302e+06
4.69117e+06
4.58218e+06
5.67071e+06
6.11378e+06
4.90691e+06
4.24741e+06
5.19354e+06
5.0272e+06
4.8914e+06
6.11378e+06
5.6417e+06
5.19354e+06
5.0272e+06
4.8914e+06
6.11378e+06
5.19354e+06
5.0272e+06
4.8914e+06
6.11378e+06
4.8914e+06
4.4629e+06
4.4629e+06
4.4629e+06
5.32398e+06
5.99113e+06
4.37467e+06
4.98961e+06
5.32398e+06
4.40043e+06
4.35323e+06
5.99113e+06
4.37467e+06
4.98961e+06
5.32398e+06
4.40043e+06
4.35323e+06
5.99113e+06
4.37467e+06
4.98961e+06
5.43344e+06
5.64526e+06
4.81338e+06
5.64526e+06
5.4614e+06
4.81338e+06
5.64526e+06
5.4614e+06
5.43343e+06
4.81338e+06
5.64526e+06
5.4614e+06
5.84354e+06
5.37318e+06
4.66395e+06
5.04058e+06
5.84354e+06
5.37318e+06
4.66395e+06
5.04058e+06
5.84354e+06
5.37318e+06
5.03427e+06
4.66395e+06
5.04058e+06
4.74607e+06
5.29766e+06
4.24102e+06
4.74607e+06
5.29766e+06
4.74607e+06
5.29766e+06
5.30552e+06
4.31473e+06
5.47596e+06
5.30552e+06
5.13726e+06
5.47596e+06
5.30552e+06
4.31473e+06
5.47596e+06
4.96627e+06
5.00343e+06
5.85402e+06
4.96627e+06
5.00343e+06
5.85402e+06
5.0706e+06
5.00343e+06
5.85402e+06
5.0706e+06
4.37453e+06
3.93644e+06
4.41609e+06
5.51767e+06
4.37453e+06
3.93644e+06
4.41609e+06
4.44005e+06
4.37453e+06
3.93644e+06
4.83711e+06
4.42163e+06
4.44088e+06
5.6835e+06
4.83711e+06
4.42163e+06
4.44088e+06
5.6835e+06
4.83711e+06
4.42163e+06
4.44088e+06
4.83711e+06
3.99695e+06
4.0991e+06
5.33392e+06
3.99695e+06
4.0991e+06
5.33392e+06
3.99695e+06
4.0991e+06
5.33392e+06
4.88637e+06
4.24902e+06
4.24902e+06
4.24902e+06
4.51483e+06
4.80395e+06
5.16001e+06
4.51483e+06
4.07251e+06
4.80395e+06
5.16001e+06
4.51483e+06
4.07251e+06
4.80395e+06
5.16001e+06
4.51483e+06
4.07251e+06
4.80395e+06
4.51974e+06
5.16001e+06
4.17889e+06
4.34474e+06
4.34474e+06
3.5459e+06
4.34474e+06
4.27888e+06
3.73485e+06
4.41049e+06
4.27888e+06
3.73485e+06
4.41049e+06
5.02225e+06
4.27888e+06
3.73485e+06
4.41049e+06
4.36052e+06
3.73485e+06
5.13773e+06
5.10566e+06
5.79891e+06
4.80524e+06
4.46672e+06
5.38448e+06
5.13773e+06
5.10566e+06
5.79891e+06
4.80524e+06
4.46672e+06
5.38448e+06
5.13773e+06
5.10566e+06
5.79891e+06
4.80524e+06
4.46672e+06
5.38448e+06
3.67759e+06
4.13215e+06
4.70877e+06
3.65958e+06
3.67759e+06
4.13215e+06
4.70877e+06
3.65958e+06
4.13215e+06
4.70877e+06
4.93957e+06
4.93957e+06
4.78097e+06
4.93957e+06
4.43612e+06
4.43612e+06
3.83623e+06
4.43612e+06
3.49274e+06
3.83623e+06
4.18351e+06
4.35605e+06
5.00678e+06
4.5235e+06
4.19469e+06
4.18351e+06
4.35605e+06
5.00678e+06
4.5235e+06
4.19469e+06
4.35605e+06
5.00678e+06
4.52349e+06
4.19469e+06
4.52349e+06
3.80784e+06
4.13492e+06
3.80784e+06
3.90044e+06
4.13492e+06
5.04273e+06
3.80784e+06
4.13492e+06
5.04273e+06
3.80784e+06
3.90044e+06
4.13492e+06
5.04273e+06
3.90408e+06
4.18302e+06
4.01543e+06
3.57044e+06
3.90408e+06
4.18302e+06
4.01543e+06
3.57044e+06
3.90408e+06
4.18302e+06
4.01543e+06
4.20955e+06
5.12885e+06
4.98766e+06
4.20955e+06
5.12885e+06
4.20955e+06
5.12885e+06
4.98766e+06
4.95662e+06
4.81997e+06
5.44044e+06
4.95662e+06
5.4918e+06
4.81997e+06
5.44044e+06
5.52781e+06
4.95662e+06
4.81997e+06
5.44044e+06
5.52781e+06
4.37282e+06
4.23077e+06
4.87971e+06
4.08395e+06
4.87971e+06