# vtk DataFile Version 3.0.
comment
ASCII

DATASET POLYDATA
POINTS 24692 double
0.00079369 0.402508 0.240985
0.0956341 0.420664 0.295316
0.0488223 0.27232 0.685162
0.0775493 0.220743 0.746006
0.177369 0.634004 0.429
0.177037 0.615601 0.349136
0.110767 0.586951 0.507615
0.125113 0.491376 0.462612
0.153554 0.972311 0.689452
0.0493344 1.00163 0.684629
0.0586066 0.180476 0.0984645
0.0723777 0.0794971 0.159775
0.488074 0.139084 0.637415
0.482291 0.0859237 0.561895
0.365693 0.29882 0.434577
0.308427 0.296161 0.362405
0.0586066 0.180476 0.0984645
0.143913 0.184518 0.178436
0.0493344 1.00163 0.684629
0.0947593 0.99287 0.606155
0.575222 0.702726 0.584916
0.519499 0.660606 0.530607
0.232675 0.411569 0.569195
0.245212 0.435015 0.465368
0.101675 1.08761 0.682019
0.0493344 1.00163 0.684629
0.125113 0.491376 0.462612
0.0694895 0.404079 0.438703
0.105445 0.0260022 0.246608
0.188988 0.0726227 0.206605
0.351122 0.594898 0.697163
0.4074 0.636777 0.687304
0.251688 0.154 0.137122
0.29888 0.23221 0.171808
0.0835484 0.295799 0.434283
0.0172311 0.24293 0.432989
0.0493344 1.00163 0.684629
0.077388 0.950761 0.746408
0.270488 0.0467118 0.557414
0.304188 0.0612759 0.489802
0.149239 0.417016 0.517054
0.0834141 0.331922 0.533162
0.188988 0.0726227 0.206605
0.0723777 0.0794971 0.159775
0.174151 0.0816479 0.0853503
0.0723777 0.0794971 0.159775
0.101673 0.357956 0.682826
0.0488223 0.27232 0.685162
0.15312 0.243023 0.688453
0.0488223 0.27232 0.685162
0.0855381 0.595894 0.714022
0.133656 0.684819 0.678822
0.048634 1.00197 1.41207
0.093265 0.992506 1.33332
0.101787 1.08744 1.40908
0.048634 1.00197 1.41207
0.0288624 0.569549 0.380591
0.0736538 0.485897 0.372528
0.357243 0.130443 0.104791
0.251688 0.154 0.137122
0.0751505 0.319646 0.269132
0.0524611 0.24799 0.343238
0.0516814 0.136417 0.375471
0.0524611 0.24799 0.343238
0.0772816 0.950754 0.0185814
0.048634 1.00197 -0.0426093
0.160779 0.255887 0.289608
0.0524611 0.24799 0.343238
0.04731 0.27243 1.41239
0.0912173 0.262467 1.33334
0.00482106 0.350371 0.627876
0.0812958 0.444362 0.606059
0.556013 0.125307 0.0578683
0.643556 0.0872434 0.073391
0.0878612 0.670733 0.241467
0.154947 0.697672 0.196233
0.262835 0.353065 0.638109
0.169345 0.340168 0.602865
0.132744 0.523461 0.301574
0.0573818 0.564274 0.253655
0.0573818 0.564274 0.253655
0.0992491 0.490698 0.221074
0.135845 0.253678 0.483422
0.111283 0.207446 0.420654
0.0812958 0.444362 0.606059
0.0436725 0.486518 0.507768
0.0956341 0.420664 0.295316
0.0989388 0.398225 0.182734
0.0956341 0.420664 0.295316
0.132744 0.523461 0.301574
0.0956341 0.420664 0.295316
0.0992491 0.490698 0.221074
0.104481 0.336164 0.354979
0.0956341 0.420664 0.295316
0.575222 0.702726 0.584916
0.667261 0.705092 0.572965
0.10155 0.0405073 0.366484
0.0516814 0.136417 0.375471
0.0516814 0.136417 0.375471
0.111283 0.207446 0.420654
0.149669 0.264821 0.551904
0.0926699 0.262479 0.606051
0.633248 0.683197 0.181369
0.578341 0.681301 0.114934
0.0694895 0.404079 0.438703
0.022778 0.332778 0.384214
0.0835484 0.295799 0.434283
0.022778 0.332778 0.384214
0.149239 0.417016 0.517054
0.189804 0.502342 0.560109
0.111283 0.207446 0.420654
0.18332 0.165978 0.491296
0.277668 0.576465 0.664326
0.248995 0.580859 0.575834
0.595845 0.366094 0.273444
0.635491 0.428299 0.321922
0.101826 0.356968 1.40925
0.04731 0.27243 1.41239
0.0762663 0.221316 0.018861
0.04731 0.27243 -0.04229
0.0963647 0.299169 0.0804481
0.113127 0.398256 0.0920179
0.0963647 0.299169 0.0804481
0.191049 0.295245 0.0367227
0.583999 0.165653 0.466773
0.632206 0.121842 0.413127
0.441951 0.451949 0.318134
0.472605 0.433339 0.397169
0.273836 0.416156 0.210331
0.234743 0.441009 0.300849
0.101673 0.357956 0.682826
0.0812958 0.444362 0.606059
0.0457241 1.35417 1.36023
0.117781 1.28407 1.34429
0.4367 0.455759 0.4885
0.472605 0.433339 0.397169
0.163896 0.640425 0.111008
0.154947 0.697672 0.196233
0.129383 0.55801 0.395334
0.177369 0.634004 0.429
0.177369 0.634004 0.429
0.148727 0.68658 0.497285
0.165708 0.710472 0.393792
0.177369 0.634004 0.429
0.177369 0.634004 0.429
0.206928 0.626176 0.507211
0.218172 0.26816 0.198393
0.126052 0.295312 0.190601
0.0457241 1.35417 1.36023
0.0932822 1.4152 1.30938
0.406861 0.184788 0.443895
0.332669 0.108734 0.434146
0.209847 0.544041 0.462254
0.260676 0.504849 0.383234
0.116868 0.0862886 0.527596
0.0785308 0.142571 0.470632
0.0855725 1.32582 1.44101
0.0457241 1.35417 1.36023
0.110461 0.0789561 0.633634
0.17275 0.00652654 0.576059
0.21336 0.112594 0.595747
0.110461 0.0789561 0.633634
0.482123 0.22062 0.335552
0.581929 0.192166 0.362688
0.573082 0.278729 0.271103
0.614494 0.302817 0.333051
0.192715 0.58877 0.734708
0.133656 0.684819 0.678822
0.17184 0.635812 0.58692
0.133656 0.684819 0.678822
0.0453465 1.35422 0.63311
0.11742 1.28411 0.616966
0.0453465 1.35422 0.63311
0.0926304 1.41494 0.581624
0.643886 0.351148 0.0505316
0.693993 0.311447 0.096509
0.10155 0.0405073 0.366484
0.158705 0.05509 0.299182
0.0851352 1.32543 0.713752
0.0453465 1.35422 0.63311
0.17184 0.635812 0.58692
0.117616 0.555231 0.617886
0.203589 0.533934 0.646676
0.117616 0.555231 0.617886
0.663807 0.0672222 -0.0105723
0.715563 -0.00313068 0.0136807
0.622898 0.497501 0.356818
0.590389 0.492725 0.431741
0.0855381 0.595894 0.714022
0.0453096 0.625117 0.633761
0.617915 0.283063 0.630423
0.549821 0.202733 0.621253
0.154781 0.691279 0.301936
0.150874 0.603568 0.23649
0.220183 0.5168 0.240943
0.150874 0.603568 0.23649
0.717477 0.416769 0.369941
0.682852 0.355554 0.320168
0.101894 0.609387 0.321359
0.0573818 0.564274 0.253655
0.391508 0.671608 0.45954
0.480003 0.625836 0.438674
0.197547 0.359804 0.130292
0.0989388 0.398225 0.182734
0.164565 0.470386 0.169568
0.0989388 0.398225 0.182734
0.149239 0.417016 0.517054
0.125113 0.491376 0.462612
0.551378 0.361649 -0.0741069
0.509376 0.383936 -0.00977519
0.0460077 0.624735 1.36096
0.118128 0.554966 1.34418
0.128688 0.142855 0.288228
0.143913 0.184518 0.178436
0.128688 0.142855 0.288228
0.198078 0.176734 0.371729
0.562657 0.707104 0.432839
0.619271 0.634522 0.501959
0.192715 0.58877 0.734708
0.203589 0.533934 0.646676
0.111283 0.207446 0.420654
0.198078 0.176734 0.371729
0.0460077 0.624735 1.36096
0.09317 0.68514 1.30906
0.135845 0.253678 0.483422
0.0835484 0.295799 0.434283
0.181987 0.473965 0.0642279
0.0884878 0.471257 0.116925
0.149651 0.192746 0.592919
0.0682275 0.180941 0.647235
0.0854084 0.596056 1.44183
0.0460077 0.624735 1.36096
0.58421 0.498567 0.573627
0.653744 0.472607 0.500833
0.593726 0.61195 0.611167
0.619271 0.634522 0.501959
0.271928 0.176429 0.437856
0.29386 0.195417 0.362386
0.129383 0.55801 0.395334
0.132744 0.523461 0.301574
0.168919 0.461485 0.378066
0.132744 0.523461 0.301574
0.18332 0.165978 0.491296
0.198078 0.176734 0.371729
0.220183 0.5168 0.240943
0.132744 0.523461 0.301574
0.334367 0.467073 0.462504
0.377449 0.444722 0.389112
0.176446 0.196974 0.0651459
0.174151 0.0816479 0.0853503
0.655373 0.303762 0.246184
0.724913 0.269925 0.259075
0.174151 0.0816479 0.0853503
0.251688 0.154 0.137122
0.0519768 0.136882 1.10318
0.11213 0.207896 1.14764
0.367527 0.523681 0.500026
0.34331 0.535257 0.416105
0.203589 0.533934 0.646676
0.189804 0.502342 0.560109
0.232675 0.411569 0.569195
0.189804 0.502342 0.560109
0.31819 0.608487 0.506638
0.3434 0.64761 0.614576
0.508218 0.182647 0.428381
0.406861 0.184788 0.443895
0.284415 0.415666 0.368358
0.245212 0.435015 0.465368
0.100665 0.0403789 1.09371
0.0519768 0.136882 1.10318
0.562235 0.224815 0.194253
0.530256 0.326333 0.197057
0.154781 0.691279 0.301936
0.221449 0.717662 0.244678
0.596043 0.282944 0.108147
0.660253 0.187741 0.0803383
0.0519768 0.136882 1.10318
0.0797529 0.143098 1.19807
0.551781 0.431322 0.405196
0.590389 0.492725 0.431741
0.62233 0.374111 0.479446
0.643126 0.428753 0.405371
0.735475 0.0628382 0.44709
0.73031 0.0117018 0.369851
0.129383 0.55801 0.395334
0.209847 0.544041 0.462254
0.414681 0.62309 0.536218
0.398004 0.585808 0.46084
0.590062 0.54325 0.496001
0.58421 0.498567 0.573627
0.160779 0.255887 0.289608
0.128688 0.142855 0.288228
0.505458 0.664887 0.092795
0.516364 0.64758 0.168385
0.168919 0.461485 0.378066
0.125113 0.491376 0.462612
0.125113 0.491376 0.462612
0.209847 0.544041 0.462254
0.266251 0.363192 0.0205126
0.160387 0.374072 0.0302511
0.494171 0.55096 0.528539
0.493392 0.48084 0.621992
0.126052 0.295312 0.190601
0.143913 0.184518 0.178436
0.251688 0.154 0.137122
0.143913 0.184518 0.178436
0.619271 0.634522 0.501959
0.708911 0.573067 0.479155
0.586972 0.372213 0.366039
0.595845 0.366094 0.273444
0.653116 0.109946 0.323959
0.632206 0.121842 0.413127
0.393772 0.536587 0.59737
0.438277 0.547256 0.699171
0.104481 0.336164 0.354979
0.200811 0.360629 0.343117
0.160779 0.255887 0.289608
0.126052 0.295312 0.190601
0.176269 0.263081 0.128427
0.126052 0.295312 0.190601
0.668984 0.450715 0.605652
0.58421 0.498567 0.573627
0.21336 0.112594 0.595747
0.204795 0.0658456 0.511978
0.197547 0.359804 0.130292
0.160387 0.374072 0.0302511
0.0878612 0.670733 0.241467
0.0212345 0.723644 0.219122
0.197547 0.359804 0.130292
0.263253 0.270085 0.0922063
0.023588 0.318149 0.181595
0.010292 0.406415 0.11268
0.335871 0.717464 0.52603
0.3434 0.64761 0.614576
0.204859 0.0369942 0.664493
0.17275 0.00652654 0.576059
0.204795 0.0658456 0.511978
0.17275 0.00652654 0.576059
0.0619944 0.1723 0.551295
0.0682275 0.180941 0.647235
0.00651074 0.25492 0.0413181
0.0963647 0.299169 0.0804481
0.051641 0.865396 0.375238
0.111058 0.936715 0.420131
0.148727 0.68658 0.497285
0.244888 0.715931 0.457947
0.160779 0.255887 0.289608
0.198078 0.176734 0.371729
0.160779 0.255887 0.289608
0.23536 0.269772 0.361331
0.411817 0.379739 0.43976
0.415178 0.353955 0.52603
0.101117 0.769274 0.366293
0.051641 0.865396 0.375238
0.051641 0.865396 0.375238
0.0785056 0.871947 0.470376
0.672986 0.58312 0.24412
0.584178 0.552899 0.293662
0.405273 0.0946372 0.379893
0.393437 0.0165454 0.413589
0.168919 0.461485 0.378066
0.200811 0.360629 0.343117
0.253157 0.597761 0.0981739
0.193283 0.552053 0.148324
0.176446 0.196974 0.0651459
0.251688 0.154 0.137122
0.238134 0.238895 0.0102703
[...]
CELL_DATA 12346

SCALARS kn double 1
LOOKUP_TABLE default
5.28701e+06
4.03261e+06
3.88552e+06
4.98188e+06
5.13164e+06
5.67484e+06
4.45213e+06
4.18577e+06
5.59121e+06
4.37267e+06
4.15908e+06
5.09133e+06
4.82491e+06
4.97024e+06
4.8208e+06
3.41026e+06
4.57242e+06
4.03001e+06
4.03261e+06
3.68997e+06
5.20386e+06
6.05362e+06
6.05423e+06
4.82491e+06
5.13164e+06
5.03116e+06
4.37267e+06
4.82491e+06
4.54785e+06
5.43113e+06
5.00063e+06
5.58116e+06
4.03261e+06
5.81442e+06
4.37267e+06
5.90265e+06
4.62435e+06
4.03118e+06
4.84146e+06
4.71939e+06
4.33265e+06
3.85667e+06
5.3403e+06
5.50411e+06
5.21861e+06
4.74979e+06
4.87049e+06
4.29488e+06
5.21655e+06
4.90463e+06
3.73935e+06
4.16057e+06
4.62461e+06
4.1482e+06
4.98921e+06
5.12484e+06
4.47366e+06
4.15348e+06
4.82491e+06
4.03262e+06
4.51458e+06
4.76139e+06
4.02197e+06
4.17187e+06
4.69252e+06
5.58436e+06
4.8842e+06
4.74463e+06
4.93653e+06
4.60285e+06
4.36057e+06
4.06542e+06
4.01254e+06
4.61883e+06
4.43207e+06
4.8982e+06
4.86077e+06
4.26774e+06
4.53325e+06
5.32172e+06
5.51179e+06
5.04987e+06
3.76971e+06
6.04081e+06
5.26096e+06
4.8842e+06
4.43207e+06
3.7714e+06
4.19992e+06
4.53325e+06
4.89522e+06
4.39498e+06
4.34939e+06
3.92771e+06
4.53324e+06
4.84914e+06
5.27322e+06
5.34423e+06
4.06975e+06
4.44121e+06
4.85921e+06
5.64041e+06
4.66536e+06
4.56348e+06
3.84044e+06
4.8842e+06
5.67173e+06
5.46886e+06
5.52506e+06
4.75823e+06
4.95216e+06
4.43207e+06
3.90776e+06
4.99026e+06
4.74392e+06
4.53325e+06
4.98479e+06
5.50535e+06
3.88437e+06
4.80223e+06
5.02119e+06
5.81421e+06
5.09988e+06
4.05991e+06
5.60967e+06
3.7758e+06
5.66337e+06
4.90463e+06
4.2083e+06
4.40209e+06
4.8251e+06
5.63097e+06
4.58776e+06
5.0423e+06
5.21655e+06
5.06928e+06
4.2257e+06
5.67541e+06
4.65534e+06
3.70226e+06
4.53469e+06
4.3946e+06
5.06754e+06
4.09194e+06
4.27666e+06
5.62992e+06
3.7349e+06
4.73862e+06
4.73942e+06
4.98691e+06
5.59824e+06
5.3726e+06
5.73134e+06
5.33356e+06
4.45772e+06
4.31288e+06
5.31007e+06
4.73621e+06
5.33507e+06
4.01684e+06
4.91162e+06
4.56337e+06
5.01576e+06
4.12232e+06
5.61341e+06
5.41616e+06
5.38831e+06
4.75435e+06
4.43231e+06
4.61773e+06
4.9695e+06
4.90463e+06
5.04871e+06
5.76152e+06
4.85078e+06
4.17529e+06
5.21655e+06
4.65534e+06
5.09196e+06
4.12086e+06
5.35973e+06
4.34381e+06
5.40736e+06
4.27362e+06
4.08254e+06
6.05498e+06
4.65724e+06
3.65659e+06
3.53108e+06
4.36117e+06
4.90463e+06
4.90705e+06
5.21845e+06
5.19263e+06
4.17224e+06
5.21655e+06
3.79726e+06
5.76418e+06
4.49222e+06
4.12409e+06
5.34392e+06
4.8842e+06
4.42103e+06
5.55797e+06
5.36598e+06
4.65534e+06
4.40329e+06
4.32697e+06
4.47521e+06
5.27055e+06
5.2566e+06
4.46643e+06
4.3715e+06
4.36945e+06
3.73421e+06
3.98164e+06
5.20027e+06
5.3403e+06
4.16572e+06
5.239e+06
4.05887e+06
4.70597e+06
4.47521e+06
4.08389e+06
4.16952e+06
5.13324e+06
4.43898e+06
5.2592e+06
5.3403e+06
4.74861e+06
4.50977e+06
4.11186e+06
3.93091e+06
4.74599e+06
5.239e+06
5.20236e+06
5.26859e+06
5.73949e+06
5.29729e+06
4.36582e+06
4.59486e+06
4.42747e+06
4.51183e+06
4.47521e+06
4.25983e+06
5.134e+06
4.17254e+06
3.76664e+06
4.97353e+06
3.92833e+06
4.54491e+06
5.10685e+06
5.3403e+06
5.09862e+06
4.17788e+06
4.19555e+06
5.05369e+06
4.76795e+06
4.63169e+06
4.25609e+06
5.239e+06
5.06181e+06
4.65534e+06
5.51085e+06
5.41439e+06
4.83025e+06
5.81442e+06
4.4328e+06
4.84221e+06
4.66381e+06
4.49525e+06
5.18394e+06
5.50335e+06
4.91636e+06
4.99323e+06
3.39713e+06
4.54976e+06
5.7082e+06
3.8623e+06
5.21537e+06
5.06101e+06
5.03363e+06
3.77985e+06
5.69832e+06
6.01776e+06
5.31026e+06
5.05705e+06
4.9912e+06
4.60327e+06
4.84198e+06
4.26356e+06
4.4878e+06
4.81827e+06
5.08372e+06
5.56575e+06
5.02283e+06
4.76783e+06
5.57388e+06
5.2139e+06
5.76841e+06
5.07709e+06
5.46647e+06
4.08448e+06
4.37672e+06
5.00064e+06
5.4166e+06
4.67443e+06
5.01088e+06
5.58116e+06
4.02587e+06
4.65618e+06
5.57033e+06
6.02016e+06
5.81442e+06
4.35323e+06
4.48418e+06
5.48256e+06
3.88954e+06
4.26772e+06
5.10324e+06
4.66945e+06
4.13432e+06
4.56865e+06
4.957e+06
4.33833e+06
5.09465e+06
5.87783e+06
4.81089e+06
4.9912e+06
4.84198e+06
4.72845e+06
4.92757e+06
5.05194e+06
5.00064e+06
5.58116e+06
4.28012e+06
4.41841e+06
5.81442e+06
4.47911e+06
4.48003e+06
4.22268e+06
5.63501e+06
5.38462e+06
4.9912e+06
4.84356e+06
4.48028e+06
4.84198e+06
5.00064e+06
5.12277e+06
4.91367e+06
5.58116e+06
5.50896e+06
3.53108e+06
4.86996e+06
5.68046e+06
4.40892e+06
5.39092e+06
4.58776e+06
4.49255e+06
4.00283e+06
5.20243e+06
4.93661e+06
4.48983e+06
4.4979e+06
3.77454e+06
5.08036e+06
3.53108e+06
4.60926e+06
5.10189e+06
4.48783e+06
4.28879e+06
4.14818e+06
4.61148e+06
4.38784e+06
4.66686e+06
5.09746e+06
5.13529e+06
5.32232e+06
5.05863e+06
4.06163e+06
5.24103e+06
4.00283e+06
5.50934e+06
5.85802e+06
3.53108e+06
5.71864e+06
3.97393e+06
4.19172e+06
4.15089e+06
4.62359e+06
4.00283e+06
4.71723e+06
3.82847e+06
4.93078e+06
5.06911e+06
5.75822e+06
4.4845e+06
4.41657e+06
4.55335e+06
3.56901e+06
4.54548e+06
4.8872e+06
4.11643e+06
3.92818e+06
4.43386e+06
4.71723e+06
4.16115e+06
5.06911e+06
4.64415e+06
4.32214e+06
4.23759e+06
4.76865e+06
5.72414e+06
5.39868e+06
5.50709e+06
4.55335e+06
4.54548e+06
4.98562e+06
4.92499e+06
5.38549e+06
4.71723e+06
5.06911e+06
4.66679e+06
5.47729e+06
4.42609e+06
5.82008e+06
4.73003e+06
4.409e+06
5.49665e+06
4.55335e+06
4.54548e+06
5.30119e+06
5.61957e+06
4.3296e+06
4.63889e+06
4.35701e+06
4.1482e+06
4.45023e+06
4.81263e+06
4.99018e+06
4.45438e+06
4.39216e+06
5.52664e+06
6.17175e+06
5.5763e+06
4.92008e+06
4.63089e+06
5.02167e+06
3.84501e+06
4.30755e+06
5.32266e+06
5.14516e+06
5.61872e+06
4.77709e+06
4.55785e+06
4.58499e+06
4.29559e+06
5.21664e+06
4.73494e+06
4.62461e+06
4.67024e+06
4.55076e+06
5.37153e+06
5.83147e+06
6.08465e+06
4.22054e+06
5.55133e+06
4.21262e+06
4.21947e+06
4.1482e+06
4.62461e+06
3.95458e+06
4.55076e+06
4.9513e+06
3.9965e+06
6.1565e+06
3.68017e+06
4.9462e+06
4.66191e+06
5.11978e+06
4.65594e+06
4.26799e+06
4.54666e+06
4.1482e+06
4.18425e+06
4.35466e+06
3.7657e+06
4.88959e+06
4.62461e+06
4.55076e+06
4.10322e+06
4.59929e+06
5.95005e+06
5.11373e+06
4.43207e+06
4.2268e+06
3.88755e+06
5.35465e+06
3.98545e+06
4.03002e+06
4.55472e+06
4.92419e+06
4.60675e+06
3.79909e+06
3.67553e+06
5.04124e+06
4.18104e+06
4.84199e+06
4.4093e+06
4.74228e+06
5.08743e+06
4.53642e+06
4.31956e+06
4.68768e+06
4.40892e+06
5.11138e+06
4.03002e+06
4.15196e+06
4.40892e+06
3.92059e+06
4.03002e+06
4.37267e+06
4.43793e+06
3.68964e+06
5.79639e+06
3.67553e+06
3.90608e+06
4.81682e+06
5.1364e+06
4.89382e+06
4.27582e+06
4.87498e+06
4.40892e+06
5.05333e+06
4.41839e+06
5.10902e+06
5.14329e+06
4.0295e+06
5.24316e+06
4.44301e+06
4.46583e+06
4.95463e+06
4.96653e+06
5.20268e+06
5.11154e+06
5.33214e+06
4.54847e+06
4.41839e+06
4.47838e+06
5.24316e+06
3.97625e+06
4.46584e+06
5.33214e+06
4.14326e+06
4.57353e+06
4.41839e+06
4.57633e+06
5.1882e+06
4.64904e+06
4.87986e+06
4.46428e+06
5.24316e+06
4.05278e+06
4.92003e+06
4.37046e+06
5.48459e+06
4.46583e+06
5.33214e+06
5.35471e+06
5.81924e+06
4.41839e+06
5.24316e+06
5.19225e+06
3.98829e+06
4.46583e+06
4.25632e+06
5.37212e+06
4.76631e+06
5.33214e+06
5.53603e+06
5.95651e+06
4.54681e+06
4.57837e+06
3.6865e+06
4.82777e+06
4.54548e+06
5.21469e+06
4.91367e+06
4.3491e+06
4.68303e+06
3.97024e+06
5.25545e+06
5.06091e+06
4.22915e+06
4.54785e+06
3.88539e+06
4.75136e+06
4.14284e+06
5.11055e+06
3.94712e+06
5.61166e+06
4.65797e+06
5.15208e+06
5.22227e+06
5.52651e+06
4.03077e+06
4.86843e+06
4.01523e+06
4.24695e+06
4.91367e+06
5.40558e+06
5.6787e+06
4.47897e+06
5.08152e+06
4.7045e+06
4.06441e+06
4.4926e+06
4.32219e+06
4.0088e+06
4.49577e+06
4.54785e+06
4.65764e+06
5.69754e+06
5.52651e+06
4.56303e+06
5.31771e+06
4.27378e+06
6.10161e+06
4.46218e+06
4.98428e+06
6.14349e+06
5.15296e+06
3.91948e+06
4.91367e+06
4.46458e+06
5.14052e+06
3.87852e+06
5.43327e+06
6.15207e+06
5.04545e+06
5.58063e+06
4.18022e+06
5.10794e+06
4.49214e+06
4.54785e+06
5.52651e+06
5.0807e+06
5.40539e+06
4.03414e+06
3.95657e+06
4.74812e+06
4.99813e+06
4.91795e+06
4.10327e+06
5.57894e+06
5.10193e+06
5.73625e+06
4.88825e+06
5.14064e+06
3.80939e+06
3.77394e+06
4.52904e+06
5.10297e+06
3.85959e+06
5.28581e+06
4.19505e+06
4.92718e+06
4.8234e+06
5.41358e+06
5.58608e+06
5.55351e+06
5.04398e+06
3.89305e+06
4.03087e+06
4.52193e+06
4.68386e+06
4.67877e+06
3.7391e+06
5.28986e+06
4.84473e+06
4.83275e+06
5.83133e+06
5.06911e+06
5.57615e+06
4.38515e+06
5.50647e+06
4.32992e+06
4.51304e+06
5.47583e+06
4.28384e+06
4.09195e+06
4.82715e+06
5.41358e+06
5.76988e+06
5.36091e+06
3.79112e+06
4.25962e+06
4.57849e+06
4.73337e+06
4.51786e+06
5.06663e+06
4.67877e+06
4.98115e+06
5.65035e+06
5.01059e+06
5.21242e+06
5.32416e+06
4.46837e+06
5.72648e+06
4.77084e+06
4.82409e+06
3.92257e+06
5.88688e+06
4.57318e+06
5.36162e+06
5.72448e+06
5.22384e+06
4.75392e+06
4.63494e+06
5.44417e+06
5.4221e+06
4.92028e+06
4.49499e+06
4.24633e+06
5.02348e+06
4.46985e+06
4.3163e+06
4.16933e+06
4.36965e+06
4.25794e+06
4.11976e+06
4.25913e+06
5.47583e+06
5.89077e+06
5.52497e+06
4.20613e+06
4.24642e+06
5.09011e+06
5.11428e+06
4.18836e+06
5.41358e+06
3.9862e+06
5.32691e+06
4.67877e+06
3.94827e+06
4.95964e+06
3.84353e+06
5.09471e+06
5.96195e+06
4.10562e+06
4.18189e+06
5.26073e+06
4.98871e+06
4.88091e+06
5.38523e+06
5.47583e+06
3.88033e+06
4.31882e+06
4.19526e+06
5.27901e+06
5.239e+06
4.62461e+06
5.41358e+06
4.72835e+06
4.39533e+06
5.01789e+06
5.45922e+06
5.23104e+06
5.36041e+06
4.87617e+06
4.22141e+06
4.65725e+06
4.2912e+06
3.53952e+06
4.67877e+06
4.71061e+06
4.42344e+06
4.11191e+06
4.71458e+06
5.83134e+06
5.04951e+06
5.47583e+06
5.29943e+06
4.0675e+06
4.87296e+06
3.99147e+06
4.45597e+06
3.49364e+06
4.30193e+06
5.59842e+06
5.33914e+06
4.46914e+06
5.52664e+06
4.37548e+06
4.87486e+06
5.34367e+06
5.77655e+06
5.42196e+06
4.67924e+06
5.59692e+06
4.5256e+06
4.21955e+06
4.56144e+06
4.33826e+06
5.39909e+06
3.80249e+06
4.38027e+06
4.17446e+06
4.84446e+06
4.70663e+06
5.11266e+06
4.9887e+06
5.59842e+06
4.28009e+06
5.52664e+06
4.01306e+06
3.85072e+06
4.67924e+06
4.33591e+06
4.91936e+06
4.40236e+06
5.59882e+06
4.24585e+06
4.34478e+06
5.06229e+06
3.87096e+06
4.86251e+06
4.39403e+06
5.51959e+06
4.52976e+06
3.65841e+06
3.56445e+06
3.81864e+06
5.23561e+06
4.34063e+06
4.74551e+06
4.56144e+06
4.27629e+06
5.23453e+06
4.61914e+06
4.85881e+06
3.7624e+06
4.90542e+06
4.09804e+06
4.17446e+06
5.34835e+06
4.58377e+06
4.78298e+06
4.9887e+06
5.59842e+06
4.52699e+06
5.42343e+06
3.5589e+06
4.84109e+06
5.00181e+06
4.6596e+06
5.52664e+06
4.24045e+06
4.22643e+06
4.216e+06
5.71964e+06
4.67924e+06
4.39853e+06
3.9967e+06
4.14094e+06
4.67941e+06
4.35135e+06
4.56144e+06
4.88721e+06
4.17446e+06
5.30682e+06
5.03861e+06
5.52651e+06
3.89957e+06
3.86856e+06
6.14094e+06
4.92003e+06
5.09646e+06
5.05359e+06
4.02059e+06
5.53851e+06
5.51844e+06
3.70005e+06
4.9887e+06
5.27478e+06
5.05701e+06
4.47263e+06
4.51105e+06
4.03924e+06
4.57885e+06
3.62122e+06
4.52854e+06
4.43261e+06
5.12289e+06
4.98395e+06
6.01404e+06
5.2051e+06
4.79896e+06
4.28093e+06
5.59842e+06
5.73463e+06
4.36363e+06
4.48507e+06
4.08109e+06
3.52193e+06
4.67924e+06
3.73525e+06
4.56144e+06
4.41373e+06
4.50998e+06
4.59698e+06
4.17446e+06
3.82929e+06
4.9887e+06
3.94373e+06
4.59207e+06
4.3937e+06
3.84932e+06
4.78181e+06
4.80968e+06
4.90838e+06
3.54477e+06
5.18088e+06
4.38789e+06
4.31176e+06
3.67284e+06
4.53156e+06
4.64301e+06
3.84932e+06
5.69096e+06
4.80968e+06
5.33422e+06
4.90422e+06
5.42448e+06
5.03104e+06
5.31496e+06
4.73678e+06
4.37574e+06
5.25507e+06
4.77397e+06
5.20709e+06
3.81639e+06
3.95458e+06
4.3937e+06
3.84932e+06
4.80968e+06
4.90684e+06
5.58143e+06
4.54285e+06
4.23068e+06
4.57465e+06
3.92244e+06
5.78302e+06
4.35713e+06
5.65134e+06
4.79774e+06
4.3293e+06
4.22074e+06
4.36718e+06
4.44026e+06
4.47663e+06
4.3937e+06
4.44114e+06
4.78779e+06
5.07809e+06
5.01073e+06
5.56169e+06
3.96154e+06
6.0791e+06
3.84932e+06
4.80968e+06
5.07929e+06
4.71723e+06
3.4234e+06
5.53595e+06
4.85658e+06
4.71157e+06
4.6317e+06
3.5923e+06
3.6452e+06
4.44856e+06
4.12232e+06
5.70696e+06
4.25794e+06
4.71645e+06
4.54506e+06
4.73998e+06
4.15936e+06
5.09109e+06
4.46939e+06
4.38882e+06
5.56011e+06
4.0388e+06
4.72686e+06
4.33729e+06
5.47802e+06
4.76437e+06
4.84952e+06
4.96677e+06
5.61642e+06
4.5723e+06
5.6778e+06
4.07716e+06
5.39108e+06
5.16553e+06
4.20168e+06
5.9982e+06
4.44856e+06
4.89212e+06
4.48791e+06
4.11687e+06
3.95258e+06
4.0163e+06
4.07375e+06
4.11302e+06
4.12232e+06
4.77412e+06
3.85778e+06
4.26317e+06
4.25794e+06
5.47803e+06
4.19237e+06
4.92622e+06
5.12748e+06
3.88976e+06
5.00905e+06
3.75241e+06
4.07716e+06
4.90534e+06
4.13576e+06
4.33174e+06
4.72498e+06
5.16553e+06
3.44155e+06
4.49639e+06
4.00714e+06
5.5213e+06
4.61554e+06
3.71417e+06
4.23755e+06
4.5227e+06
4.12232e+06
4.66571e+06
4.08229e+06
3.98708e+06
4.24792e+06
5.02154e+06
4.75846e+06
4.25794e+06
5.47803e+06
4.0967e+06
4.07716e+06
4.28099e+06
3.84285e+06
3.98019e+06
4.10588e+06
4.73074e+06
4.40238e+06
5.16553e+06
4.71977e+06
4.89968e+06
4.00282e+06
4.44856e+06
4.61947e+06
5.29058e+06
4.48786e+06
4.7036e+06
4.28033e+06
4.2243e+06
5.32726e+06
4.43586e+06
4.02487e+06
5.47803e+06
4.8841e+06
4.84275e+06
5.16553e+06
4.52631e+06
4.541e+06
4.03593e+06
3.90798e+06
4.47552e+06
3.85125e+06
4.03593e+06
4.47552e+06
4.03593e+06
5.47749e+06
4.47552e+06
4.03593e+06
5.56128e+06
5.17907e+06
4.91014e+06
4.92835e+06
5.98405e+06
4.23367e+06
4.68632e+06
4.18124e+06
5.10871e+06
4.75503e+06
4.11435e+06
4.81257e+06
4.47552e+06
4.67405e+06
4.36549e+06
4.83639e+06
5.06135e+06
5.2805e+06
4.67381e+06
5.6747e+06
5.13867e+06
4.36168e+06
5.06069e+06
6.13539e+06
3.82237e+06
4.84357e+06
4.34929e+06
5.04026e+06
4.97311e+06
4.86628e+06
5.12967e+06
5.53352e+06
3.89661e+06
5.89914e+06
5.06135e+06
3.94691e+06
5.2805e+06
5.11796e+06
4.1754e+06
4.36163e+06
4.10223e+06
4.42383e+06
5.56688e+06
4.64791e+06
5.25187e+06
5.16906e+06
4.24698e+06
4.41017e+06
3.86519e+06
4.84357e+06
4.38939e+06
3.92754e+06
4.34929e+06
4.3296e+06
4.15719e+06
4.92447e+06
3.99187e+06
4.37565e+06
4.43408e+06
5.06135e+06
4.36965e+06
5.27524e+06
4.05346e+06
4.15425e+06
5.1127e+06
4.84397e+06
4.48985e+06
5.52225e+06
5.2805e+06
4.91757e+06
5.16918e+06
4.53625e+06
5.34867e+06
4.88991e+06
5.66309e+06
4.34614e+06
4.84357e+06
5.1069e+06
4.34929e+06
5.5635e+06
4.34928e+06
5.6003e+06
4.67735e+06
4.07966e+06
6.00837e+06
5.36979e+06
4.36634e+06
5.79746e+06
4.569e+06
4.61813e+06
5.09215e+06
5.42637e+06
4.58988e+06
4.52236e+06
3.57356e+06
5.2805e+06
4.20045e+06
3.57672e+06
4.99856e+06
4.54313e+06
4.5145e+06
4.78606e+06
5.75712e+06
4.36634e+06
4.31675e+06
4.40199e+06
5.42637e+06
5.75679e+06
5.30545e+06
4.19102e+06
3.89647e+06
3.95758e+06
4.49889e+06
4.99856e+06
5.31218e+06
5.82513e+06
5.3231e+06
4.76929e+06
3.72597e+06
4.36634e+06
5.78854e+06
3.89338e+06
4.80324e+06
4.30396e+06
5.16775e+06
5.42637e+06
4.12507e+06
4.42317e+06
5.38744e+06
4.99856e+06
3.62195e+06
4.31498e+06
4.74379e+06
4.22774e+06
4.23848e+06
4.90057e+06
3.97155e+06
4.84743e+06
4.69185e+06
4.06125e+06
5.32606e+06
4.44772e+06
4.45471e+06
4.44333e+06
4.96057e+06
4.36634e+06
4.92789e+06
3.68878e+06
4.41332e+06
4.49934e+06
4.08742e+06
5.42637e+06
4.59253e+06
6.17914e+06
4.06403e+06
4.14309e+06
4.10127e+06
4.99856e+06
4.09498e+06
4.80208e+06
5.72128e+06
4.28919e+06
5.00767e+06
4.84451e+06
4.90555e+06
4.07209e+06
5.09104e+06
4.43577e+06
5.58428e+06
4.25357e+06
4.8677e+06
5.21782e+06
3.71615e+06
4.03437e+06
3.65495e+06
5.67635e+06
4.3946e+06
4.55335e+06
4.7531e+06
4.83163e+06
4.74512e+06
5.15921e+06
4.58736e+06
4.64194e+06
5.93482e+06
4.39085e+06
4.57665e+06
6.12074e+06
4.23454e+06
5.01406e+06
4.46127e+06
5.36037e+06
4.93369e+06
4.5549e+06
4.55076e+06
4.07716e+06
5.33748e+06
3.99596e+06
4.83149e+06
5.02143e+06
4.19734e+06
5.06135e+06
5.65467e+06
4.13858e+06
4.55164e+06
5.21782e+06
6.07116e+06
4.6792e+06
4.46547e+06
3.75532e+06
4.65923e+06
3.9465e+06
5.04049e+06
5.3445e+06
4.4846e+06
5.01241e+06
3.90066e+06
4.3946e+06
5.88511e+06
3.71864e+06
3.95931e+06
4.1541e+06
3.65727e+06
4.6904e+06
3.88285e+06
5.36317e+06
4.51184e+06
4.60122e+06
4.17987e+06
4.97112e+06
5.21782e+06
3.6227e+06
4.3946e+06
4.29999e+06
5.54061e+06
4.19982e+06
4.60122e+06
5.21782e+06
4.85895e+06
4.58343e+06
4.47521e+06
4.3946e+06
5.37636e+06
4.84786e+06
4.67857e+06
4.24085e+06
4.71069e+06
3.75912e+06
4.87178e+06
4.73091e+06
4.27148e+06
4.32502e+06
4.24085e+06
4.85992e+06
4.31966e+06
3.68396e+06
4.27148e+06
3.71412e+06
4.69098e+06
4.75416e+06
4.03667e+06
4.89642e+06
5.59402e+06
4.24085e+06
4.27148e+06
4.38472e+06
4.24085e+06
4.47213e+06
4.05973e+06
4.25658e+06
4.27148e+06
5.97554e+06
4.80368e+06
4.07975e+06
4.28598e+06
4.95283e+06
4.52268e+06
4.56229e+06
5.73694e+06
3.78945e+06
3.65209e+06
5.01707e+06
5.04048e+06
4.9912e+06
5.31885e+06
4.72791e+06
4.49379e+06
4.90547e+06
3.73835e+06
4.87163e+06
4.72002e+06
5.60959e+06
3.76251e+06
5.2744e+06
4.53161e+06
4.40801e+06
4.03844e+06
5.78194e+06
4.1828e+06
3.92546e+06
4.05451e+06
5.95855e+06
4.12637e+06
4.7325e+06
5.26824e+06
5.15934e+06
4.73534e+06
5.39275e+06
4.89001e+06
4.49877e+06
5.3914e+06
3.67704e+06
4.96127e+06
4.55964e+06
3.67553e+06
5.04048e+06
5.87886e+06
5.40628e+06
5.68276e+06
4.24766e+06
3.65342e+06
4.52981e+06
5.88007e+06
5.20962e+06
3.63159e+06
5.56046e+06
4.55207e+06
5.04048e+06
5.1906e+06
5.67484e+06
4.25356e+06
5.59121e+06
5.67484e+06
4.25356e+06
5.1906e+06
5.59121e+06
5.67484e+06
4.25356e+06
5.59121e+06
6.07438e+06
4.93369e+06
6.05423e+06
6.05363e+06
6.07438e+06
4.93369e+06
6.05423e+06
6.05363e+06
6.07438e+06
4.93369e+06
6.05423e+06
6.05363e+06
6.07438e+06
4.33265e+06
4.71939e+06
4.92789e+06
4.33265e+06
4.44121e+06
4.71939e+06
4.33265e+06
4.71939e+06
4.92789e+06
3.85073e+06
4.35466e+06
3.85073e+06
4.35466e+06
3.85073e+06
4.35466e+06
5.73949e+06
4.90422e+06
5.16918e+06
4.97024e+06
5.36037e+06
4.64301e+06
5.73949e+06
5.16918e+06
4.97024e+06
5.36037e+06
4.64301e+06
5.73949e+06
4.90422e+06
5.16918e+06
4.97024e+06
5.36037e+06
4.64301e+06
5.05828e+06
5.52487e+06
5.05828e+06
6.0791e+06
5.52487e+06
4.7036e+06
5.13639e+06
5.05828e+06
6.0791e+06
5.52487e+06
5.10324e+06
4.7036e+06
5.13639e+06
5.05828e+06
6.0791e+06
5.52487e+06
4.7036e+06
5.13639e+06
4.2942e+06
3.92163e+06
4.2942e+06
3.92163e+06
4.2942e+06
3.92163e+06
4.2942e+06
3.92163e+06
4.61773e+06
4.51304e+06
5.30681e+06
4.74392e+06
4.61773e+06
4.51304e+06
5.30681e+06
4.74392e+06
4.61773e+06
4.51304e+06
5.30681e+06
4.74392e+06
5.58436e+06
5.57894e+06
5.46647e+06
5.58436e+06
5.57894e+06
5.46647e+06
5.58436e+06
5.57894e+06
5.46647e+06
4.03437e+06
4.19734e+06
4.19734e+06
4.03437e+06
4.19734e+06
4.77634e+06
4.72509e+06
4.51217e+06
3.83567e+06
4.77634e+06
4.72509e+06
4.51217e+06
3.83567e+06
4.77634e+06
4.72509e+06
4.51217e+06
3.83567e+06
4.77634e+06
4.72509e+06
4.51217e+06
3.83567e+06
4.70766e+06
4.07556e+06
4.70766e+06
4.07556e+06
4.70766e+06
4.07556e+06
4.70766e+06
4.07556e+06
5.02348e+06
4.76783e+06
5.33748e+06
5.29058e+06
5.02348e+06
4.76783e+06
5.20386e+06
5.33748e+06
5.29058e+06
5.02348e+06
4.76783e+06
5.20386e+06
5.33748e+06
5.29058e+06
4.12848e+06
3.57356e+06
4.12848e+06
4.55908e+06
5.58143e+06
4.64791e+06
5.58143e+06
4.64791e+06
5.58143e+06
4.64791e+06
5.03104e+06
4.64194e+06
5.09365e+06
5.03104e+06
4.64194e+06
5.03104e+06
4.64194e+06
4.84952e+06
4.48791e+06
4.67857e+06
4.84952e+06
4.67857e+06
4.84952e+06
4.67857e+06
4.34711e+06
4.30414e+06
4.38784e+06
4.30414e+06
4.38784e+06
4.3471e+06
4.30414e+06
4.38784e+06
4.3471e+06
4.30414e+06
4.54099e+06
5.42343e+06
4.51457e+06
4.76139e+06
4.54099e+06
5.42343e+06
4.51457e+06
4.76139e+06
4.54099e+06
5.42343e+06
4.51457e+06
4.76139e+06
4.38881e+06
4.51105e+06
3.90776e+06
4.07209e+06
4.38881e+06
4.51105e+06
4.07209e+06
4.38881e+06
4.51105e+06
3.90776e+06
4.07209e+06
4.40259e+06
4.75504e+06
4.52236e+06
5.31218e+06
5.34868e+06
4.8411e+06
4.75504e+06
4.52236e+06
5.31218e+06
5.34868e+06
4.8411e+06
4.75504e+06
4.52236e+06
5.31218e+06
5.34868e+06
4.8411e+06
5.50411e+06
4.74979e+06
4.87049e+06
5.21861e+06
4.78779e+06
4.50998e+06
5.50411e+06
4.74979e+06
4.87049e+06
5.21861e+06
4.78779e+06
4.50998e+06
5.50411e+06
4.74979e+06
4.87049e+06
5.21861e+06
4.78779e+06
4.50998e+06
4.23755e+06
4.26774e+06
4.23755e+06
4.26774e+06
4.23755e+06
4.26774e+06
3.78987e+06
4.24153e+06
4.44254e+06
4.24153e+06
4.44254e+06
4.24153e+06
4.44254e+06
4.24153e+06
4.44254e+06
4.10965e+06
4.5075e+06
5.03116e+06
5.11266e+06
4.10965e+06
4.5075e+06
5.03116e+06