# vtk DataFile Version 3.0.
comment
ASCII

DATASET POLYDATA
POINTS 3070 double
0.0306647 0.407901 0.190874
0.0298093 0.494239 0.673392
0.574315 0.0421499 0.469168
0.0837686 0.437 0.642932
0.077473 0.491647 0.59241
0.0686016 0.0951836 0.567373
0.415583 0.485709 0.0105797
0.059025 0.399659 0.149008
0.379705 0.329357 0.57971
0.0961367 0.434692 0.169795
0.69737 0.702666 0.647202
0.230039 0.0663063 0.39361
0.065824 0.422083 0.294779
0.0512862 0.032323 0.397824
0.0403389 0.671877 0.380942
0.0671818 0.734138 0.320028
0.593175 0.500139 0.497916
0.315149 0.378164 0.569525
0.0604217 0.367941 0.521307
0.369006 0.49873 0.47467
0.347178 0.747516 0.276186
0.0260287 0.511369 0.739489
0.0262745 0.471744 0.713595
0.0429899 -0.0401747 0.472493
0.706714 0.695693 0.315504
0.264219 0.679724 0.573708
0.0369513 0.481541 0.385451
0.07914 0.367954 0.0118043
0.0725072 0.341563 0.722904
0.0484699 0.262346 0.27555
0.0843166 0.312984 0.136186
0.461444 0.155362 0.605255
0.364631 0.037218 0.342044
0.102356 0.0833224 0.354423
0.0466672 0.486012 0.287855
0.289388 0.249599 0.103769
0.102195 0.537044 0.263674
0.67421 0.60005 0.548499
0.594914 0.263928 0.608065
0.516118 0.171147 0.233143
0.0210863 0.344933 0.538657
0.179213 -0.03129 -0.0386224
0.088062 0.0884174 0.107708
0.0760507 0.132926 0.14137
0.517464 0.221851 0.0605679
0.0736597 -0.00272141 0.175345
0.309021 0.156809 0.386776
0.118253 0.669097 0.336897
0.130046 0.00728218 0.313747
0.135816 0.673565 0.255495
0.0152003 0.242957 0.622325
0.310085 0.695264 0.547007
0.636733 0.660935 0.453396
0.0326677 0.247487 0.312828
0.265661 0.120461 0.4478
0.0611631 0.294849 0.670489
0.57023 0.182455 0.680992
0.0642503 0.296114 0.612207
0.0773261 0.0981178 0.0156556
0.646467 0.0399071 0.0637337
0.078787 0.217164 0.393884
0.0944548 0.1962 0.44005
0.343073 0.719365 0.511102
0.0840279 0.600481 0.137503
0.0955785 0.549986 0.14989
0.133587 0.694853 0.176126
0.0575531 0.0113925 0.486413
0.116598 0.00835681 0.464706
0.0892165 0.118913 0.287485
0.367912 0.361554 0.215759
0.227613 0.493467 0.734501
0.397549 0.188292 0.338214
0.280106 0.312461 -0.0285551
0.517276 0.416837 0.320013
0.0937912 0.566655 0.773404
0.0979926 0.479191 0.0716967
0.0468916 0.279032 0.50771
0.0698407 0.677128 0.140663
0.139937 0.586742 0.146886
0.100493 0.111904 0.0577065
0.188457 0.659726 0.148426
0.172712 0.677629 0.0969297
0.186434 0.531624 0.014237
0.395752 0.593823 0.121612
0.405489 0.341089 0.483563
0.478088 0.362468 0.386903
0.102067 0.353227 0.425073
0.103506 0.354751 0.367265
0.08254 0.606944 0.413824
0.0920076 0.572471 0.459127
0.685142 0.471515 0.609828
0.0931802 0.427122 0.505483
0.640068 -0.00198287 -0.0281697
0.209238 0.120271 0.0811808
0.642503 0.437284 0.332987
0.132887 0.335514 0.045089
0.551526 0.0696599 0.540216
0.118356 0.239891 0.418552
0.124452 0.295867 0.356931
0.130718 0.666726 0.722169
0.122066 0.67277 0.776522
0.106024 0.255597 0.749631
0.108451 0.348419 0.675153
0.760574 0.215936 0.51069
0.138211 0.2973 0.0134041
0.418195 0.305215 0.608059
0.168762 0.291372 0.700531
0.472475 0.413646 0.435926
0.192887 0.258512 0.219843
0.437366 0.633242 0.378938
0.12982 0.0511167 0.703435
0.552018 0.215838 0.763049
0.655579 0.677205 0.54043
0.2327 0.447179 0.703701
0.609577 0.109601 0.449938
0.118818 0.601003 0.696272
0.196395 0.124012 0.232105
0.141543 0.598989 0.332321
0.0409949 0.16455 0.565724
0.122287 0.690648 0.385025
0.114468 0.677115 0.48903
0.260923 0.750755 0.477006
0.140214 0.18628 0.124904
0.266675 0.257678 0.564048
0.487154 0.647638 0.449871
0.139134 0.215636 0.0656955
0.617924 0.592575 0.263079
0.061345 0.503406 0.516823
0.111194 0.487915 0.415223
0.160856 0.445424 0.444277
0.113099 0.351494 0.618041
0.120388 0.41755 0.691115
0.140118 0.392376 0.609035
0.121625 0.183388 -0.0598045
0.156401 0.218732 0.631446
0.177394 0.7853 -0.0187782
0.240901 0.483322 0.601127
0.135673 0.611132 0.611681
0.208186 0.198223 0.58435
0.422965 0.158206 0.533985
0.159563 0.299809 0.202584
0.154185 0.0520288 0.275103
0.17854 0.00855144 0.35144
0.176007 0.0601313 0.387837
0.116945 0.52632 0.51878
0.467798 0.407583 -0.0120694
0.574753 0.45084 0.401153
0.136129 0.320405 0.520126
0.167006 0.262373 0.602576
0.15329 0.00303746 0.683388
0.16091 0.671313 0.680039
0.145788 0.686873 0.217366
0.154004 0.546731 0.220245
0.187855 0.525816 0.31642
0.227356 -0.0292639 -0.0677976
0.185821 0.243615 0.492737
0.686447 0.335274 0.497349
0.0497082 0.0122455 0.566795
0.0799336 0.388645 0.0462918
0.147284 0.744276 0.0331395
0.609467 0.308085 0.502665
0.056555 0.0994556 0.654932
0.130088 0.537707 0.422866
0.74004 0.259061 0.296366
0.540778 0.494223 0.492819
0.358024 0.559572 0.124229
0.0251779 0.614917 0.756654
0.227592 0.451012 0.159274
0.0514482 0.458325 0.0527332
0.156963 0.597657 0.522625
0.330151 0.146824 0.610078
0.648413 0.378057 0.147623
0.160691 0.016873 0.515156
0.193966 0.683196 0.458595
0.177149 0.0170635 0.459566
0.699878 0.523535 0.6386
0.660141 0.392293 0.337825
0.244812 0.122406 0.662776
0.0942848 0.398725 0.599684
0.0434467 0.43314 0.0982883
0.143772 0.460376 0.291976
0.276895 0.338079 0.357962
0.186724 0.390896 0.446058
0.194506 0.302524 0.490323
0.189493 0.304753 0.425142
0.688146 0.171039 0.545803
0.676232 0.67256 0.749309
0.143527 0.387846 0.135853
0.181985 0.422145 0.146852
0.636134 -0.0580266 0.296255
0.21831 0.281084 0.616142
0.155983 0.724269 0.376573
0.264219 0.552063 0.392134
0.146299 0.486274 0.0717382
0.45827 0.545183 0.479509
0.593095 0.0479973 0.544576
0.667368 0.616722 0.0377814
0.716156 0.361491 0.68538
0.274663 0.0931495 0.177191
0.256367 0.0793155 0.301504
0.267111 0.317642 0.655425
0.14202 0.173252 0.346041
0.443981 0.495325 0.41037
0.169616 0.393015 0.301785
0.177231 0.294731 0.308378
0.189181 0.307317 0.365611
0.673339 0.336231 0.353051
0.715769 0.191437 0.253277
0.156382 0.464181 0.578033
0.590015 0.397038 0.298672
0.098481 0.190504 0.279516
0.173135 0.0611082 0.607056
0.19168 0.119368 0.548547
0.337752 -0.00317688 0.615216
0.539321 -0.0314783 0.266697
0.0613039 0.286947 0.0975158
0.0499967 0.338065 0.109395
0.686447 0.179997 0.446943
0.66194 0.544044 0.533999
0.588717 0.221977 0.29864
0.137166 0.718523 0.647947
0.317616 0.582661 0.70802
0.208658 0.308955 0.0460153
0.530586 0.319572 0.554725
0.153796 0.521652 0.642684
0.165404 0.523347 0.687235
0.403659 0.0182697 0.493339
0.164309 0.743546 0.181094
0.171406 0.720878 0.225476
0.0305925 0.102771 0.291645
0.306478 0.569945 0.761852
0.188015 0.445696 0.746858
0.159657 0.0965583 0.421356
0.723252 0.316855 0.764706
0.512234 0.48289 0.760873
0.0400635 0.110908 0.349856
0.211426 0.00953371 0.643681
0.233223 0.084821 0.679327
0.223228 0.489263 0.557407
0.12838 0.111571 0.322876
0.171989 0.423711 0.560415
0.190628 0.740181 0.0429832
0.193933 0.159487 0.112126
0.182295 0.239859 0.136967
0.0134001 0.560627 0.119775
0.676985 0.292574 0.660677
0.236228 0.478096 0.122507
0.230095 0.438166 0.0628588
0.457184 0.106558 0.0362455
0.177292 0.638394 0.6252
0.209009 0.66925 0.64736
0.173105 0.581256 0.587782
0.203693 0.673566 0.593292
0.206089 0.597885 0.546631
0.234608 0.302043 -0.0160407
0.723722 0.33468 0.155572
0.563027 0.482865 0.214265
0.196645 0.0889036 0.717679
0.244365 0.626202 0.182431
0.0374564 0.348135 0.763265
0.346044 0.282072 0.6776
0.24558 0.10916 0.716815
0.249312 0.164022 0.0421501
0.241821 0.0738432 0.0459986
0.273117 0.113278 0.0231026
0.205306 0.734167 0.107465
0.221472 0.669748 0.0312754
0.113885 0.286756 0.233182
0.222647 0.163147 0.500359
0.631177 0.297008 0.685981
0.333096 0.531623 0.442869
0.151581 0.689516 0.589763
0.40114 0.353905 0.370034
0.243899 0.00506526 -0.0257886
0.221521 0.308232 0.659917
0.208117 0.397737 0.248727
0.22498 0.426973 0.303562
0.673796 0.438477 0.0559243
0.034906 0.371823 0.0604353
0.493076 0.436396 0.77381
0.214779 0.472664 0.379721
0.386827 0.0649387 0.516274
0.245094 0.428861 0.376013
0.262013 0.396204 0.420795
0.181052 0.502929 0.570466
0.228392 0.441473 0.532913
0.701438 0.0878716 0.592891
0.136729 0.207165 0.525805
0.208342 0.308359 0.193526
0.270209 0.680489 0.130755
0.220359 0.518595 0.587206
0.591396 0.390779 0.491226
0.0181305 0.270784 0.0221582
0.235493 0.0302913 0.10511
0.605508 0.0413021 0.407014
0.560935 0.670571 0.13966
0.687694 0.369366 0.422531
0.245774 0.525489 0.341427
0.595746 0.0800202 0.235186
0.191899 0.554696 0.0680249
0.581832 0.101964 0.13677
0.199305 0.496754 0.622914
0.021134 0.626286 0.561363
0.624644 0.479585 0.716874
0.470847 0.374687 0.651999
0.63692 0.605735 0.68172
0.673415 0.415859 0.109072
0.26045 0.650359 0.486455
0.216091 0.112683 0.443268
0.241631 0.0291365 0.438311
0.234401 0.302159 0.563915
0.27558 0.251727 0.478367
0.612466 0.0512555 0.319081
0.251779 0.537295 0.161012
0.0758778 0.0904126 0.483722
0.212966 0.259784 0.342679
0.198829 0.180026 0.298483
0.240983 0.206089 0.319058
0.260165 0.259918 0.257236
0.706447 0.771211 0.569608
0.316018 0.26667 0.620981
0.569632 0.629717 0.435913
0.354123 0.079324 0.747861
0.410122 0.347547 0.535818
0.507494 0.53137 0.49209
0.238116 0.570527 0.666232
0.266566 0.52153 0.712143
0.431647 0.609678 0.113034
0.195176 0.228466 0.384273
0.26715 0.256117 0.415179
0.25995 0.311195 0.40184
0.0157334 0.314423 0.296195
0.6047 0.252932 0.166791
0.257534 0.0204914 0.607477
0.113967 0.246323 0.614689
0.635799 0.51182 0.0168965
0.445216 0.579754 0.0180073
0.201127 0.176474 0.410117
0.566374 0.131624 0.379508
0.622751 0.216529 0.20739
0.252856 0.168774 0.400718
0.268846 0.676208 0.394003
0.185522 0.163876 0.33983
0.228431 0.156349 0.326446
0.263681 0.711345 0.304893
0.335335 0.333868 0.555156
0.257723 0.373426 0.572348
0.638544 0.00195992 0.399564
0.254647 0.638515 0.302421
0.0521332 0.439379 0.451582
0.282008 0.304352 0.0908643
0.294289 0.360905 -0.0113174
0.302962 0.373341 0.0489574
0.685875 0.331523 0.116819
0.317783 0.30074 0.000609491
0.311661 0.741902 0.221948
0.271249 0.421888 0.669274
0.485029 0.472526 0.318397
0.250623 0.605737 0.334725
0.223128 0.344617 0.160493
0.273306 0.308968 0.23015
0.49971 0.0840603 0.534107
0.224727 0.685212 0.727991
0.505688 0.649951 0.664504
[...]
POINT_DATA 3070

VECTORS nn double
-0.144315 -0.816156 0.55952
0.62468 -0.28174 -0.728284
-0.0661775 0.21744 0.973828
0.467764 -0.876815 0.111317
-0.340626 -0.229271 0.911816
-0.0771862 -0.678314 0.730707
-0.323173 -0.298969 -0.897874
-0.304832 0.946767 0.103484
-0.79093 0.459917 0.403617
-0.892018 0.391677 -0.225595
0.0742492 0.475827 -0.876399
0.586467 0.083695 -0.805638
0.60406 -0.468521 -0.64467
-0.47113 -0.25413 -0.844662
-0.155096 -0.407606 -0.89989
-0.736541 0.504007 0.451092
-0.35287 -0.348466 -0.868363
0.55571 -0.558215 0.616102
-0.394636 -0.725329 -0.564058
-0.654258 -0.415135 -0.632147
0.715739 0.44409 0.538982
0.535508 0.123479 0.835454
0.539843 -0.811933 0.222115
0.10163 -0.303922 -0.947261
-0.383564 -0.00831741 0.923477
-0.365975 0.522693 0.76997
-0.129195 -0.511258 -0.849661
-0.78553 0.0581181 -0.616089
0.612895 -0.740246 -0.276397
-0.613079 0.485033 0.6236
0.249231 -0.952051 -0.177433
-0.175903 0.0401378 -0.983589
0.342065 -0.349178 -0.872391
-0.83709 0.422595 0.347411
0.288856 0.583743 -0.758819
-0.0773133 -0.725045 -0.684349
-0.847452 -0.460464 -0.264193
-0.649566 0.58189 0.489354
-0.107059 0.258237 0.960131
-0.0543704 -0.0949596 0.993995
0.342741 -0.295629 -0.891702
-0.958436 -0.166253 -0.231862
0.867707 -0.118691 -0.482698
-0.631479 -0.754664 -0.178092
0.821061 0.392142 -0.414829
0.438212 0.230157 -0.868906
-0.663317 0.348996 -0.661976
-0.161488 0.641207 -0.750184
-0.368622 -0.864713 -0.341159
0.469325 -0.560154 -0.682614
0.0686536 0.94617 0.316307
0.509716 0.819911 0.260644
-0.175351 0.847608 -0.500812
-0.176574 0.896301 -0.406776
-0.613131 0.789646 0.0230214
0.802001 0.0372088 0.596162
-0.232454 0.156795 0.959886
0.859607 0.0610979 -0.50729
0.097003 -0.899729 -0.425534
0.222453 0.507883 -0.832208
0.460207 0.806333 -0.371532
0.759444 0.410335 0.504846
-0.0990638 0.374424 0.921951
-0.665822 -0.741067 0.0866077
0.915093 -0.3593 0.183053
0.101981 0.721183 0.685197
0.361945 0.618408 -0.697544
0.667127 -0.672558 0.320324
0.39455 0.751779 0.528355
0.311706 -0.0792185 -0.94687
0.24358 -0.876722 0.414762
0.810013 -0.105548 -0.576835
0.186107 -0.176968 -0.966461
0.493269 -0.554637 -0.670122
-0.565261 -0.774425 0.28416
-0.632813 0.645251 -0.428017
0.141579 -0.940144 0.309975
-0.884773 0.445909 0.135437
0.199924 -0.952065 0.231522
0.617949 -0.589554 0.520158
0.950576 0.176479 0.25546
-0.707612 -0.453818 0.541603
0.473528 0.211397 -0.855034
-0.261228 -0.328737 0.907575
-0.0787386 0.945096 0.317166
-0.0496993 0.123921 0.991047
-0.78715 0.202904 -0.582431
0.81574 -0.173074 -0.551918
-0.754688 -0.390721 0.527052
-0.924072 0.237923 -0.299139
0.519435 -0.268176 -0.811338
0.241156 0.423252 -0.873328
0.514681 0.439642 -0.736083
0.0648997 0.00748198 -0.997864
-0.274566 -0.782523 -0.558813
0.589763 -0.772491 0.235452
-0.486077 0.449498 0.749454
-0.345409 0.343329 -0.873394
-0.469723 -0.796375 0.380982
0.030414 0.839681 -0.542228
-0.109019 0.936231 0.334046
-0.0550898 -0.69049 0.721241
0.0146979 -0.854871 0.518632
-0.824071 -0.512424 -0.241512
-0.480548 -0.00360106 -0.876961
0.0167256 -0.0466811 0.99877
-0.990803 0.0952286 0.0961308
0.0729399 -0.994111 -0.0801411
-0.156832 0.254734 -0.954209
-0.403148 -0.00940384 0.915087
0.812953 0.0870392 -0.575788
-0.160453 0.563517 0.810373
0.337695 0.705621 -0.622946
0.148403 -0.0121523 0.988852
-0.917791 0.313065 -0.244234
0.161828 0.22074 0.961814
0.849481 -0.520337 0.0873564
-0.224422 0.520949 0.823558
-0.533795 0.467842 0.704405
-0.094092 0.994381 0.0485085
0.706985 0.699529 -0.104074
0.320145 0.0387588 -0.946575
0.749446 0.393775 -0.532233
0.560598 -0.168338 0.810797
-0.360913 0.00802347 0.932565
-0.771664 0.173308 -0.611964
0.13406 0.743893 0.654715
0.689218 -0.0252982 0.724112
0.0813786 0.664897 -0.742489
0.970214 -0.0953999 -0.222673
-0.105544 0.794602 0.597887
-0.248272 -0.497168 -0.831375
-0.63353 -0.00456079 0.773705
-0.245138 0.423956 -0.871876
-0.936135 -0.280547 0.212003
0.0391077 0.299782 -0.953206
0.287225 0.599542 -0.747029
0.502391 0.425011 -0.752974
-0.0873998 0.687766 0.720652
0.725917 -0.0265408 0.687271
0.533901 -0.601405 -0.594358
0.0400221 -0.106858 -0.993468
0.451566 -0.841544 0.296466
0.409018 0.0300729 0.912031
-0.513548 -0.52099 0.68179
0.697148 0.678503 -0.231554
-0.0256406 0.526745 0.849637
-0.250467 -0.314386 0.915657
-0.728428 0.583295 -0.359389
-0.43049 -0.86748 0.249311
-0.585557 0.745911 0.317395
0.20158 -0.917967 0.341618
-0.0269109 -0.306843 -0.95138
0.511001 -0.640554 0.573209
0.24752 -0.11539 -0.961987
-0.818099 -0.408356 -0.404919
-0.123871 0.622004 -0.773154
0.221905 0.634327 0.740532
-0.764777 0.58693 0.265763
0.678196 0.677704 -0.284195
-0.243638 0.634277 0.733712
0.113527 -0.746815 -0.65527
-0.297283 -0.333579 -0.894622
-0.816313 -0.575576 -0.0484274
-0.578344 0.243632 0.778564
-0.420264 -0.290007 -0.85981
-0.0186033 0.301419 0.95331
0.148759 0.405193 0.902047
0.122411 0.98513 -0.120557
0.144341 0.651604 0.7447
0.41466 -0.420297 0.807098
0.978038 0.0182034 -0.207629
-0.101626 -0.822272 -0.559947
-0.682954 0.59211 0.427761
-0.388663 -0.825005 0.410254
0.751823 0.556241 -0.35406
-0.688271 0.271617 -0.672686
-0.556734 0.545765 -0.626249
0.262145 -0.12863 0.956417
-0.0581341 0.416693 0.907186
-0.784849 0.52026 0.336662
-0.440477 -0.240626 -0.864916
0.54774 0.797751 -0.252141
0.66875 -0.595397 0.445282
0.590122 -0.560575 -0.580957
0.441823 0.272294 -0.85478
-0.303921 -0.062983 0.950613
0.0055459 -0.495608 -0.868529
0.734603 0.154179 -0.660747
-0.190457 -0.979639 0.0635115
0.287768 0.953406 -0.0905839
-0.954746 0.136216 0.264396
0.466141 0.185857 -0.864968
0.42145 0.799936 -0.427179
0.765982 0.323938 -0.55528
-0.518883 0.0750197 -0.851547
-0.146897 0.926206 0.347222
0.555481 0.656969 -0.509738
-0.357027 -0.0443571 0.93304
0.0753194 -0.168906 0.98275
0.553184 -0.323646 0.76762
-0.672246 -0.345815 -0.654596
-0.496231 0.636077 -0.590898
0.274116 0.804033 -0.527628
0.39929 -0.815734 -0.418504
0.596019 -0.608283 0.52417
0.432454 0.818881 0.377382
0.397704 -0.59511 -0.698337
0.513414 0.047665 -0.856816
0.956081 0.160438 0.245293
0.207466 -0.694087 0.689348
0.108427 -0.0754256 0.991239
-0.421042 -0.907033 -0.00378437
-0.00100304 -0.0821849 -0.996617
0.957511 -0.282878 -0.0561506
-0.690792 0.45069 -0.565407
-0.502964 -0.402678 -0.764773
0.472291 0.115984 0.873779
0.872197 0.433546 -0.226516
0.101557 -0.264159 -0.959117
0.101013 0.216979 -0.970936
0.692399 -0.0904841 -0.715819
-0.948127 -0.232851 0.216417
-0.360059 -0.387987 -0.848424
0.528764 0.310514 -0.78993
-0.840362 -0.355788 -0.408908
0.576244 -0.670158 0.467793
0.664321 0.492706 -0.562066
-0.837036 0.0724279 -0.542333
-0.650755 0.463052 0.601749
0.376625 -0.450641 0.809368
0.98282 0.0155322 0.18391
-0.709503 0.640384 -0.294133
0.667258 -0.0482745 0.74326
0.104364 0.680272 0.725491
-0.825764 0.313872 -0.468612
0.513243 -0.761812 -0.395252
-0.868276 -0.460853 -0.183603
0.774457 0.435468 0.458895
-0.395987 0.899181 -0.186196
0.212825 0.828618 -0.517781
-0.355144 0.776949 -0.51983
-0.288509 0.913654 -0.286355
-0.0629967 -0.640715 -0.76519
-0.87229 -0.12788 -0.471972
-0.0634175 -0.431791 -0.899741
-0.315981 -0.929679 -0.189347
0.1975 0.156396 -0.967747
-0.971146 -0.133498 0.197621
0.197423 0.033454 0.979747
0.553194 0.69698 -0.456284
0.12715 -0.927651 0.351136
0.64184 0.625274 0.44393
0.681553 -0.647535 -0.340857
-0.537166 -0.343293 -0.770456
-0.429556 0.829662 -0.356571
0.760359 -0.582284 -0.287749
0.273155 0.526137 0.805336
-0.206347 0.86986 -0.448067
-0.293239 -0.570525 0.767145
0.17163 0.0417107 0.984278
-0.537147 0.191622 0.821434
-0.59935 -0.717919 -0.354079
-0.474039 0.775538 -0.416927
-0.991652 0.123168 -0.0381611
-0.0663628 0.658908 0.74929
0.252145 -0.609862 -0.751327
-0.459787 -0.885159 0.0713418
0.205117 -0.0219444 -0.978491
-0.786853 -0.36173 -0.500013
0.0189936 0.997394 0.0696028
-0.234782 0.892887 0.384227
0.00466911 -0.994578 -0.103889
0.661878 0.744233 0.0896342
-0.23204 -0.484807 0.843279
-0.481066 0.710777 0.513197
0.814291 -0.137946 0.563827
0.521681 -0.110884 -0.845904
-0.250799 -0.966574 0.0532317
-0.24107 -0.158726 0.95744
-0.0882466 0.542354 -0.835503
-0.235984 -0.27394 -0.932346
0.4086 -0.175867 -0.89561
-0.685122 0.710277 0.161602
-0.0379759 0.700681 0.712463
-0.874306 0.485205 0.0128677
-0.177353 0.230159 0.956856
-0.0290895 -0.220527 0.974947
-0.476945 -0.779035 -0.406975
-0.741481 -0.253294 0.621328
-0.853719 0.373447 0.362906
0.544003 0.571283 0.61457
0.029436 0.720985 0.692326
-0.602611 -0.114117 0.789834
0.742399 0.194496 -0.641104
-0.316481 -0.455432 0.832118
0.152842 0.173814 -0.972845
0.775511 0.631117 -0.0165537
-0.323715 -0.561708 0.761376
-0.59542 -0.725889 -0.344325
-0.545799 -0.210929 -0.810933
-0.416659 0.826658 -0.378196
-0.79434 0.607255 0.0163007
-0.440347 -0.140039 0.886839
-0.757367 0.509669 -0.408207
-0.770169 0.383132 0.50995
0.511585 -0.68902 0.513353
0.439132 0.0377854 0.897628
-0.329391 -0.937855 -0.109226
0.79935 -0.600598 0.0179169
0.0105241 0.589286 0.807856
0.71162 -0.26949 -0.648823
0.629298 0.0338805 0.776425
0.0842909 0.59344 0.800453
0.0430085 -0.757668 -0.651221
0.154319 0.274013 0.949264
-0.0646402 -0.962001 0.265285
0.588971 -0.558194 0.584408
0.885435 0.276191 -0.373796
0.0959953 0.809823 -0.578767
0.678921 0.39462 0.619145
0.203389 -0.491373 -0.846868
-0.673072 0.574313 0.465981
-0.152743 0.841903 -0.51756
0.165102 -0.585502 0.793681
-0.426564 -0.466289 0.774996
0.921636 -0.387247 0.0250506
0.732769 0.109916 0.671542
0.485041 0.856223 0.177813
-0.851891 0.342435 -0.396258
-0.71781 -0.680231 -0.148442
0.291811 -0.954996 0.0531889
0.872775 -0.476283 -0.10686
-0.254791 -0.944404 0.207803
0.0922834 0.831998 -0.547049
0.653247 0.757049 -0.0120274
-0.655552 -0.435865 -0.616663
-0.614 0.275355 -0.739719
0.165207 0.0707052 -0.983721
0.558887 0.157551 -0.81414
0.370388 0.129108 -0.919861
0.580633 0.473788 -0.66211
0.274682 -0.54944 -0.789091
-0.819433 -0.357599 -0.447942
0.660376 -0.0822654 0.746415
-0.135248 -0.367541 -0.920121
-0.391197 -0.637432 0.663811
-0.209163 -0.828035 0.520201
-0.782426 -0.016998 0.622511
0.974772 0.203422 0.0918607
0.216235 -0.305539 0.927302
0.411254 0.591611 -0.693446
-0.550848 -0.791783 -0.263905
-0.278007 -0.887372 -0.367808
0.78375 -0.362911 -0.504015
0.242344 -0.293093 0.92486
0.800762 -0.440138 0.406275
-0.216408 0.671998 -0.708227
0.694495 -0.713102 0.0957206
0.230543 0.174856 0.957223
0.605774 -0.769207 0.20337
0.473874 0.182284 0.86152
-0.181828 0.938103 -0.29479
-0.646109 0.258613 0.718096
0.141105 0.885399 -0.442897
0.694436 -0.0244989 -0.719137
0.692616 -0.450219 -0.563548
-0.843802 0.247903 -0.475964
0.192762 0.502197 -0.842996
-0.28915 0.480872 -0.827741
0.733904 0.261412 0.626936
0.523595 -0.780876 -0.340707
0.258565 -0.161623 0.952377
0.878672 -0.45165 -0.15475
-0.931438 -0.361013 -0.0457469
-0.221697 -0.970679 -0.0929156
-0.830332 -0.307421 -0.464801
-0.853312 0.512779 0.0944264
0.806884 0.326246 0.492445
0.0532801 -0.783287 -0.619373
0.263749 0.294602 -0.918502
-0.281422 -0.663494 -0.693237
-0.599613 0.683841 0.415724
-0.273628 -0.628917 -0.72773
0.659591 0.739188 0.136168
-0.702312 -0.0891572 -0.706264
0.0837086 0.988797 0.123582
-0.803868 -0.593408 -0.0407765
-0.346785 0.606615 -0.715373
-0.731195 0.473315 0.491249
-0.876025 -0.308709 -0.370512
-0.936023 0.188888 -0.296956
-0.608398 -0.350117 0.712228
0.307212 -0.446754 -0.840257
0.0738228 -0.77264 0.630538
0.203461 0.658084 0.724933
-0.214076 0.91826 -0.333122
-0.380473 0.43579 -0.815676
0.594412 -0.678753 0.431242
-0.355478 0.587098 -0.727291
-0.358741 -0.221578 -0.906757
-0.74916 0.303042 -0.589004
-0.776267 -0.181892 0.603593
-0.341637 0.424852 0.838323
-0.826304 0.546818 0.134953
0.393259 -0.648649 0.651615
0.0685786 0.866839 -0.49385
0.574597 -0.692252 0.436606
-0.766125 0.143982 0.626356
-0.346338 -0.897639 -0.272571
0.168309 0.157379 0.97309
-0.414624 0.769359 -0.485976
0.891381 0.147805 0.428478
-0.510791 0.859464 0.0203645
0.724473 0.430882 0.538033
-0.728296 -0.0483372 0.683556
-0.424948 -0.196376 0.88366
0.953758 0.286953 0.0894649
-0.416249 -0.533729 -0.736119
-0.0991551 -0.114303 -0.988485
-0.631289 -0.330705 -0.701504
-0.0215901 -0.575759 0.817334
0.492396 0.867817 -0.0666331
0.998352 -0.0370349 -0.0438443
0.404684 0.645806 0.64743
0.672822 -0.0175372 -0.739597
-0.798601 0.311816 0.514789
0.455128 0.813615 -0.361787
-0.502274 0.729796 -0.46381
0.094045 0.744144 0.661366
0.0824831 0.58129 0.809505
0.482001 0.592955 0.645042
0.434845 -0.879197 -0.194738
-0.670541 0.601781 0.43386
0.278531 -0.67188 0.686293
0.451484 -0.0633448 -0.890028
-0.537436 -0.528787 -0.656923
-0.217298 0.416509 0.882781
-0.725286 -0.672021 -0.149491
0.587683 -0.715162 -0.37838
0.228264 -0.334867 0.914199
0.820621 0.488976 -0.295778
-0.683077 -0.565187 0.462568
-0.365517 0.0598079 -0.928881
0.338288 -0.364118 0.867744
0.677143 -0.512771 0.527772
0.280301 0.567286 0.77435
-0.402693 0.385607 0.830148
-0.323745 0.44453 -0.835214
0.206428 0.334897 0.919365
0.312742 0.767747 -0.559248
-0.169287 -0.849851 0.499095
0.569115 0.731549 0.375425
-0.903073 0.197909 -0.381172
-0.690811 -0.238295 0.682639
0.255283 -0.166196 0.952475
0.320537 0.123961 -0.93909
0.0906115 0.728866 0.678634
-0.2101 0.760997 0.613793
0.870388 0.272906 -0.409814
0.353445 -0.485536 -0.799582
0.0483155 -0.425986 -0.903439
0.43591 -0.510617 0.741115
0.734612 -0.449327 -0.50838
0.61017 0.790965 0.0454667
-0.72445 0.490208 0.484632
-0.367792 -0.769939 -0.521463
0.0978319 0.907096 -0.409397
0.488149 -0.471119 -0.734682
-0.418946 -0.846758 -0.327849
0.523858 -0.572436 -0.630785
-0.926475 0.304365 -0.221373
0.599194 0.0280989 0.800111
-0.367988 -0.929296 -0.0315296
-0.979057 0.202701 0.0189779
0.311268 0.587477 0.746983
-0.653349 -0.356987 0.667604
-0.00553777 0.957756 0.287529
0.504305 -0.131635 0.853433
0.0913784 0.831032 0.548667
-0.548971 -0.313355 0.77488
0.367832 -0.137702 -0.91964
0.743582 0.047997 0.66692
-0.0342175 0.863969 -0.502381
-0.45048 0.252164 0.856435
0.269726 -0.491537 -0.828033
0.980927 0.193008 0.0230437
-0.22832 0.927697 0.295378
0.705803 -0.632537 -0.318966
-0.266851 0.900535 0.343259
-0.260932 0.208595 0.942551
0.687106 -0.520444 0.506974
0.33753 -0.90763 0.24956
0.502948 0.787656 0.355866
0.111589 -0.759121 -0.641314
-0.210623 0.112556 -0.971066
-0.342875 -0.238897 -0.908496
-0.63625 -0.736096 -0.230973
0.502067 -0.140904 0.853273
-0.387231 0.317809 0.865477
0.409988 -0.339842 -0.846414
-0.631348 0.535063 -0.561344
0.714094 0.0110207 -0.699963
0.664692 0.745794 0.044456
0.882362 -0.331852 -0.333635
0.51606 0.8513 0.0947192
0.0938923 -0.156981 -0.983128
-0.34215 0.527693 -0.777479
0.833106 0.553098 -0.00422697
0.417157 -0.599303 0.68324
0.91433 -0.365184 -0.175047
-0.534959 -0.0165473 -0.844716
0.090818 -0.0649001 -0.993751
0.706863 -0.0776826 -0.703072
0.801043 -0.484874 -0.351037
0.835049 0.548904 0.0373846
-0.453008 -0.665348 -0.593377
-0.59555 0.630485 -0.497804
-0.707255 0.617362 0.344462
-0.497625 -0.343957 -0.796281
-0.4622 -0.595982 -0.65664
0.555698 0.145768 -0.818506
-0.110239 -0.95709 -0.268003
-0.714352 0.626836 -0.311092
-0.454869 -0.400867 -0.795235
0.219761 -0.0750931 -0.972659
0.606526 -0.569503 -0.554791
-0.751938 0.60523 0.261316
-0.876957 0.171889 0.448776
-0.220856 0.942669 -0.250195
0.67276 0.688446 -0.270991
-0.370712 0.798485 -0.474336
-0.373598 0.925632 -0.0602549
0.752762 -0.184928 0.631784
0.487278 -0.070634 0.870386
0.424919 -0.469303 0.774079
-0.334258 0.820488 -0.463758
-0.948342 0.308361 0.0745743
0.369732 0.908279 -0.195776
-0.959414 0.174589 -0.221458
0.207352 -0.819117 0.534839
-0.704172 0.191465 -0.683727
-0.379694 -0.765145 0.519987
-0.330673 -0.917549 0.220813
0.357526 0.926687 0.115873
-0.182247 -0.943163 -0.2779
-0.995111 0.0462041 0.0872852
-0.264187 0.611557 0.74579
0.643944 -0.184327 0.742536
0.246514 0.0893152 -0.965015
0.443699 -0.849244 0.286211
0.322808 0.208379 -0.92324
-0.0288574 -0.98166 0.188442
-0.925988 -0.341367 -0.161289
0.451871 0.056182 0.890312
0.776438 -0.440622 -0.450552
-0.456949 0.525794 0.717453
0.837834 -0.524257 0.152279
-0.872041 -0.410718 0.266188
0.950395 0.269262 0.155715
-0.00178438 0.935941 -0.352151
0.44015 -0.475171 0.761893
-0.269472 -0.267246 -0.925183
0.62136 0.544928 0.562996
0.694 -0.296152 -0.656245
-0.606001 -0.561432 0.563522
0.0203879 0.484248 -0.874693
0.684538 0.546004 -0.482998
-0.328413 -0.563471 -0.758054
-0.866861 0.259185 -0.425882
0.0738583 0.69345 0.716709
0.44408 -0.0868225 0.891771
0.745506 -0.666473 -0.00583383
-0.560205 -0.574557 -0.596703
-0.125712 0.105829 0.986406
-0.610234 -0.500581 -0.61403
0.64817 0.654664 0.388961
0.72823 -0.412763 0.54709
-0.633407 -0.492921 -0.59651
-0.10201 -0.977831 -0.182865
-0.915603 0.136644 -0.378152
-0.577111 -0.815757 -0.038509
0.421965 0.902344 0.0878727
-0.811779 0.350454 -0.467115
0.2071 -0.92744 0.311392
-0.494176 0.213238 -0.842805
0.387167 -0.574276 -0.721324
-0.147598 -0.90609 0.396504
0.616037 0.75878 -0.211547
-0.835412 -0.116777 0.537075
0.845751 -0.0605487 0.530131
0.682747 -0.569363 0.45791
0.680478 0.245359 -0.69047
0.258256 0.962177 0.0867136
0.0797494 0.619535 -0.780907
-0.610461 0.187415 0.769553
0.312712 -0.329517 0.890859
0.795389 0.575599 -0.18985
0.77 -0.611906 0.180751
0.202943 0.971672 -0.121111
0.687289 0.72421 -0.0561647
0.39576 0.176431 -0.901247
0.0310981 0.9909 0.130955
0.0631172 -0.405636 -0.911853
-0.164902 0.361521 -0.917665
0.335364 0.941569 0.0312737
-0.549039 0.368895 -0.749982
-0.471404 -0.122956 0.873304
0.349081 0.936883 0.0197933
0.280076 0.735076 0.61743
0.645685 -0.228455 0.728628
0.842607 -0.105319 -0.52813
-0.212762 0.555801 0.803628
-0.14417 -0.243632 -0.959092
-0.396984 -0.836751 0.377162
-0.543624 0.258135 0.798648
-0.275175 0.503873 -0.818774
-0.0136832 0.459621 0.88801
0.148464 -0.729168 0.668037
0.259023 0.849225 0.460134
0.57029 -0.763196 0.30381
0.564264 -0.122959 -0.816387
0.42048 0.123144 -0.898906
-0.0820346 0.621093 0.779432
-0.641918 -0.571088 0.511664
0.366766 -0.332664 -0.868802
-0.846862 -0.00329909 0.531803
-0.558686 -0.805605 0.197155
-0.201161 0.97043 -0.133416
0.619252 -0.397114 -0.677368
-0.113418 -0.991234 0.0677613
-0.971377 -0.144469 -0.18856
-0.516329 -0.146154 0.843827
-0.857573 0.156592 -0.489946
-0.720542 0.414719 0.555722
0.822532 0.505029 0.261509
-0.474476 -0.517561 -0.712041
-0.0826693 -0.962471 0.258487
-0.569519 0.426361 -0.702754
-0.752251 0.482671 0.448494
0.854474 -0.0709932 -0.514621
0.417219 -0.489191 0.765912
0.509573 0.566601 0.647533
0.752127 -0.14457 -0.642965
-0.0692053 -0.0983161 -0.992746
0.8543 0.43419 -0.285744
-0.432024 0.597286 -0.675725
-0.859743 0.359943 0.362329
-0.749227 -0.642407 0.161161
-0.0163103 0.386892 -0.921981
0.0731195 0.889913 0.450231
-0.49608 0.289611 -0.818554
-0.495694 -0.800598 0.336645
-0.927688 -0.354852 0.116087
-0.338558 -0.94094 0.00330595
0.825456 0.180244 -0.534915
0.16774 -0.15392 0.973741
0.448278 0.808451 -0.381385
0.864018 0.267559 0.426479
-0.503449 0.226404 -0.833835
-0.0507457 0.432876 0.900024
-0.929419 -0.0663009 0.36302
0.656685 0.0128658 0.754055
-0.188117 -0.935734 -0.298352
-0.149051 0.973087 0.175744
0.098872 0.251165 0.962881
-0.0998466 -0.607697 0.787867
-0.870711 0.316813 0.376153
-0.172244 -0.235347 0.956527
-0.419252 0.236556 0.876509
-0.862415 0.231302 0.450265
0.309873 0.880716 -0.358215
-0.236585 -0.884841 -0.401352
-0.675521 -0.670307 0.307181
0.073307 -0.951514 0.298742
-0.537203 -0.25339 0.804492
-0.964315 -0.249942 -0.0873185
0.910653 -0.0818101 0.404992
0.522912 -0.723779 0.45023
-0.265569 -0.53348 -0.803039
0.519723 -0.54318 -0.659427
-0.48446 -0.840925 0.241131
-0.434522 0.400276 -0.806827
-0.156597 -0.736477 -0.658087
-0.699046 0.477208 -0.532547
-0.211515 -0.893904 -0.395217
-0.852371 -0.38354 0.355473
0.566956 0.7061 -0.424244
0.607251 -0.694968 -0.385052
-0.497431 -0.777713 0.384351
0.271812 -0.943935 0.187363
-0.0453126 -0.911383 0.409058
0.103368 -0.213121 0.971542
-0.681965 0.657404 -0.320536
0.0590922 0.886181 0.459555
0.0518433 -0.0692194 -0.996253
0.0400273 0.520941 0.852654
0.443441 -0.89548 0.0384196
0.15572 0.0507023 0.986499
0.308306 -0.511322 -0.802183
0.0860734 0.505034 -0.858797