# vtk DataFile Version 3.0.
comment
ASCII

DATASET POLYDATA
POINTS 6140 double
0.0397778 0.459438 0.155542
0.0247962 0.374711 0.213627
0.00339844 0.50615 0.704183
0.0606546 0.480327 0.637431
0.576857 0.0337962 0.431755
0.571589 0.0511067 0.509282
0.0606546 0.480327 0.637431
0.1077 0.392142 0.648627
0.0932054 0.502237 0.550296
0.0606546 0.480327 0.637431
0.0732754 0.136258 0.523126
0.0637224 0.0523059 0.613562
0.429058 0.498175 0.0480172
0.39891 0.470285 -0.035742
0.0729418 0.356435 0.144284
0.0397778 0.459438 0.155542
0.417399 0.307439 0.560475
0.341788 0.351405 0.599059
0.143234 0.414012 0.181707
0.0397778 0.459438 0.155542
0.693221 0.67608 0.69617
0.70133 0.728046 0.600457
0.198207 0.0617635 0.437338
0.260246 0.0706171 0.352114
0.0291203 0.450552 0.33395
0.0933303 0.400749 0.265423
0.0783467 0.0469196 0.446339
0.02299 0.0170599 0.347093
0.0480266 0.692081 0.425548
0.0332534 0.653256 0.339831
0.109096 0.705457 0.294358
0.02299 0.764378 0.347093
0.613002 0.519719 0.546708
0.573308 0.48052 0.449027
0.281423 0.412043 0.532133
0.341788 0.351405 0.599059
0.0807768 0.405353 0.550401
0.0393381 0.32919 0.491172
0.410131 0.524825 0.514406
0.332022 0.475263 0.438936
0.320636 0.731048 0.256199
0.380589 0.768247 0.301347
0.00339844 0.50615 0.704183
0.0589835 0.518967 0.790902
0.00339844 0.50615 0.704183
0.045239 0.443222 0.721398
0.0373111 -0.0231924 0.525423
0.0480266 -0.0552368 0.425548
0.726602 0.696125 0.267621
0.690157 0.695334 0.355369
0.283396 0.652334 0.53336
0.242238 0.711116 0.619952
0.04151 0.499581 0.415432
0.0291203 0.450552 0.33395
0.109855 0.365682 0.035894
0.0487971 0.370199 -0.0119935
0.0487971 0.370199 0.733597
0.109334 0.297084 0.706296
0.0858457 0.232777 0.237533
0.0262824 0.2799 0.298118
0.0729418 0.356435 0.144284
0.0972766 0.263478 0.126959
0.472692 0.152795 0.668149
0.453944 0.157073 0.563314
0.349571 0.0525913 0.380453
0.380589 0.0209285 0.301347
0.151817 0.0583527 0.333896
0.0710253 0.0991392 0.367426
0.0291203 0.450552 0.33395
0.060786 0.514544 0.250765
0.293495 0.28812 0.140128
0.284795 0.206524 0.0631123
0.155704 0.566118 0.280356
0.060786 0.514544 0.250765
0.710039 0.567953 0.521507
0.635325 0.634883 0.577793
0.600026 0.251598 0.56222
0.5892 0.27771 0.659306
0.518721 0.175694 0.185553
0.513837 0.167164 0.274834
0.00761684 0.356551 0.573701
0.0393381 0.32919 0.491172
0.217468 -0.0246543 -0.0293679
0.132209 -0.0394435 -0.0499937
0.043866 0.0944629 0.132293
0.131312 0.0825014 0.0836481
0.10538 0.167977 0.149642
0.043866 0.0944629 0.132293
0.46933 0.198862 0.0848869
0.546374 0.235658 0.0459616
0.0540873 -0.0130012 0.214154
0.0944358 0.0081906 0.134149
0.333032 0.144176 0.410738
0.27296 0.175782 0.350788
0.127981 0.63047 0.382089
0.109096 0.705457 0.294358
0.151817 0.0583527 0.333896
0.109096 -0.0418615 0.294358
0.109096 0.705457 0.294358
0.15329 0.65271 0.230079
0.0113936 0.190494 0.604786
0.018823 0.292885 0.639016
0.283396 0.652334 0.53336
0.337698 0.739681 0.561127
0.644347 0.624128 0.475143
0.627501 0.705561 0.427029
0.0397807 0.211381 0.329214
0.0262824 0.2799 0.298118
0.292302 0.0861493 0.4468
0.23341 0.161996 0.449011
0.018823 0.292885 0.639016
0.109334 0.297084 0.706296
0.583119 0.173761 0.627769
0.559453 0.189724 0.725495
0.018823 0.292885 0.639016
0.119929 0.300071 0.579349
0.0730132 0.138121 0.0345755
0.0829346 0.0460969 -0.00894805
0.635208 0.0141996 0.105857
0.658611 0.0676321 0.0183039
0.0545012 0.174613 0.413491
0.101386 0.256759 0.37564
0.0545012 0.174613 0.413491
0.138416 0.219952 0.469273
0.348431 0.699112 0.461233
0.337698 0.739681 0.561127
0.127007 0.648317 0.131912
0.0535025 0.566506 0.141473
0.0535025 0.566506 0.141473
0.152335 0.527701 0.161243
0.127007 0.648317 0.131912
0.13768 0.723796 0.203625
0.0373111 -0.0231924 0.525423
0.0783467 0.0469196 0.446339
0.0783467 0.0469196 0.446339
0.15487 -0.0302269 0.483082
0.0671081 0.0767878 0.257879
0.108753 0.156139 0.313647
0.348089 0.366592 0.275974
0.387981 0.356453 0.154794
0.213638 0.543769 0.710705
0.240655 0.446528 0.756708
0.365137 0.192515 0.361295
0.435139 0.183393 0.311444
0.268371 0.32362 0.0323853
0.286728 0.306164 -0.0629438
0.494837 0.442068 0.350497
0.542044 0.388988 0.286365
0.128832 0.614662 0.755789
0.0589835 0.518967 0.790902
0.12699 0.449624 0.0913097
0.0589835 0.518967 0.045312
0.0393381 0.32919 0.491172
0.0530427 0.238186 0.521177
0.127007 0.648317 0.131912
0.0373495 0.693503 0.145636
0.127007 0.648317 0.131912
0.152335 0.527701 0.161243
0.0730132 0.138121 0.0345755
0.131312 0.0825014 0.0836481
0.127007 0.648317 0.131912
0.23439 0.668253 0.160771
0.208677 0.700695 0.0694018
0.127007 0.648317 0.131912
0.165197 0.522143 0.0525834
0.213638 0.543769 -0.0348854
0.405198 0.60571 0.0887948
0.381295 0.57563 0.17184
0.40887 0.300502 0.469942
0.40056 0.400252 0.503417
0.480118 0.357407 0.34643
0.475814 0.368139 0.432258
0.152019 0.340351 0.462034
0.0619443 0.363569 0.395385
0.0619443 0.363569 0.395385
0.152991 0.344252 0.333784
0.127981 0.63047 0.382089
0.0412149 0.585549 0.442684
0.14818 0.558008 0.477311
0.0412149 0.585549 0.442684
0.652409 0.488415 0.660955
0.718808 0.454134 0.557242
0.0807768 0.405353 0.550401
0.106646 0.450755 0.456719
0.621532 -0.017817 -0.00165913
0.658808 0.0140247 -0.0549708
0.206419 0.119947 0.124519
0.213165 0.120724 0.0207955
0.659685 0.486253 0.367956
0.630783 0.403879 0.309132
0.109855 0.365682 0.035894
0.161926 0.297478 0.0566823
0.571589 0.0511067 0.509282
0.525306 0.0939065 0.580643
0.138416 0.219952 0.469273
0.101386 0.256759 0.37564
0.152991 0.344252 0.333784
0.101386 0.256759 0.37564
0.128832 0.614662 0.755789
0.132209 0.707875 0.695597
0.128832 0.614662 0.755789
0.117236 0.71425 0.791321
0.109334 0.297084 0.706296
0.103475 0.223645 0.783006
0.1077 0.392142 0.648627
0.109334 0.297084 0.706296
0.796355 0.238186 0.521177
0.713436 0.186625 0.496875
0.161926 0.297478 0.0566823
0.109334 0.297084 -0.0392938
0.417399 0.307439 0.560475
0.418995 0.302984 0.65578
0.211486 0.287266 0.696385
0.109334 0.297084 0.706296
0.468817 0.46349 0.439944
0.475814 0.368139 0.432258
0.202999 0.242087 0.281369
0.185335 0.270778 0.173893
0.459441 0.633757 0.328831
0.420088 0.632839 0.418156
0.0829346 0.0460969 0.736642
0.179805 0.0564684 0.668032
0.559453 0.189724 0.725495
0.546374 0.235658 0.791552
0.635325 0.634883 0.577793
0.669196 0.705656 0.515312
0.22393 0.447897 0.645266
0.240655 0.446528 0.756708
0.64658 0.096979 0.459785
0.5569 0.127569 0.43592
0.110846 0.590129 0.648891
0.128832 0.614662 0.755789
0.155399 0.149124 0.22789
0.251482 0.0902695 0.23777
0.155704 0.566118 0.280356
0.127981 0.63047 0.382089
0.0732754 0.136258 0.523126
0.0113936 0.190494 0.604786
0.127981 0.63047 0.382089
0.118601 0.729603 0.386925
0.0870338 0.649971 0.493068
0.15487 0.717091 0.483082
0.246138 0.748965 0.52072
0.273766 0.75231 0.439032
0.10538 0.167977 0.149642
0.179032 0.206675 0.0973367
0.233783 0.267555 0.516475
0.28901 0.250971 0.596351
0.501644 0.647316 0.412432
0.469896 0.648022 0.494464
0.179032 0.206675 0.0973367
0.103475 0.223645 0.0374161
0.610696 0.552468 0.227779
0.625447 0.63432 0.299819
0.0347934 0.504381 0.488927
0.0932054 0.502237 0.550296
0.106646 0.450755 0.456719
0.11525 0.521057 0.378213
0.106646 0.450755 0.456719
0.22016 0.439593 0.430667
0.119929 0.300071 0.579349
0.1077 0.392142 0.648627
0.134017 0.444843 0.736753
0.1077 0.392142 0.648627
0.163985 0.392547 0.579888
0.1077 0.392142 0.648627
0.131976 0.165487 -0.0229888
0.109343 0.20463 -0.103487
0.203776 0.23293 0.620717
0.109343 0.20463 0.642103
0.175753 0.772724 0.0212099
0.179805 0.803787 -0.0775584
0.22393 0.447897 0.645266
0.251312 0.505054 0.574048
0.110846 0.590129 0.648891
0.165546 0.636404 0.566907
0.212506 0.164232 0.548734
0.203776 0.23293 0.620717
0.383306 0.159656 0.496437
0.453944 0.157073 0.563314
0.135023 0.327451 0.229902
0.185335 0.270778 0.173893
0.151817 0.0583527 0.333896
0.155786 0.0477544 0.235363
0.151817 0.0583527 0.333896
0.198772 -0.0291538 0.364724
0.151817 0.0583527 0.333896
0.198207 0.0617635 0.437338
0.14818 0.558008 0.477311
0.0932054 0.502237 0.550296
0.423565 0.364532 0.00262259
0.506453 0.445203 -0.0249083
0.575742 0.430523 0.368382
0.573308 0.48052 0.449027
0.152019 0.340351 0.462034
0.119929 0.300071 0.579349
0.203776 0.23293 0.620717
0.119929 0.300071 0.579349
0.179805 0.0564684 0.668032
0.132209 -0.0394435 0.695597
0.185642 0.639809 0.666634
0.132209 0.707875 0.695597
0.13768 0.723796 0.203625
0.15329 0.65271 0.230079
0.155704 0.566118 0.280356
0.152335 0.527701 0.161243
0.155704 0.566118 0.280356
0.210813 0.497037 0.342174
0.217468 -0.0246543 -0.0293679
0.242238 -0.0362019 -0.125639
0.233783 0.267555 0.516475
0.138416 0.219952 0.469273
0.692358 0.305593 0.534243
0.681142 0.361915 0.464234
0.0373111 -0.0231924 0.525423
0.0637224 0.0523059 0.613562
0.109855 0.365682 0.035894
0.0460236 0.41467 0.0580756
0.117236 0.71425 0.0457312
0.175753 0.772724 0.0212099
0.62415 0.269861 0.458448
0.59987 0.333069 0.531566
0.0508397 0.137053 0.687921
0.0637224 0.0523059 0.613562
0.14818 0.558008 0.477311
0.11525 0.521057 0.378213
0.769596 0.2799 0.298119
0.692825 0.225769 0.293565
0.573308 0.48052 0.449027
0.514894 0.505127 0.527664
0.381295 0.57563 0.17184
0.330831 0.540807 0.0685956
0.0261678 0.598879 0.705931
0.0240954 0.632456 0.812129
0.219917 0.430106 0.112733
0.23442 0.469611 0.20068
0.0460236 0.41467 0.0580756
0.0589835 0.518967 0.045312
0.14818 0.558008 0.477311
0.165546 0.636404 0.566907
0.309488 0.167768 0.569859
0.354487 0.122157 0.657446
0.607538 0.377296 0.156301
0.700759 0.379031 0.136511
0.166711 0.0655773 0.548323
0.15487 -0.0302269 0.483082
0.234424 0.64812 0.433255
0.15487 0.717091 0.483082
0.198207 0.0617635 0.437338
0.15487 -0.0302269 0.483082
0.652409 0.488415 0.660955
0.737074 0.551055 0.621083
0.695563 0.378314 0.372445
0.630783 0.403879 0.309132
0.265615 0.102013 0.686177
0.221897 0.14487 0.637001
0.0807768 0.405353 0.550401
0.1077 0.392142 0.648627
0.0460236 0.41467 0.0580756
0.0397778 0.459438 0.155542
0.183584 0.433985 0.274898
0.115917 0.47884 0.303924
0.303867 0.352813 0.410922
[...]
CELL_DATA 3070

SCALARS kn double 1
LOOKUP_TABLE default
4.75528e+06
4.38338e+06
3.84613e+06
4.83284e+06
4.59232e+06
5.93892e+06
4.44157e+06
5.09374e+06
4.5895e+06
5.52487e+06
5.24511e+06
5.08102e+06
4.99959e+06
5.63907e+06
4.56922e+06
5.61541e+06
5.40531e+06
5.14338e+06
5.03935e+06
5.71493e+06
3.97776e+06
4.82293e+06
3.68866e+06
5.04831e+06
4.54004e+06
5.37971e+06
4.29934e+06
3.74096e+06
4.52326e+06
4.36249e+06
4.67458e+06
4.9185e+06
4.36158e+06
4.41252e+06
5.20378e+06
5.38666e+06
5.29377e+06
5.52437e+06
4.84401e+06
4.29881e+06
4.35921e+06
4.22847e+06
4.84561e+06
4.67145e+06
4.22377e+06
4.42836e+06
4.17724e+06
5.63551e+06
5.57581e+06
4.32765e+06
5.20039e+06
5.12266e+06
4.58783e+06
3.66361e+06
4.57216e+06
5.40145e+06
4.84962e+06
5.58936e+06
4.8326e+06
5.04974e+06
4.88632e+06
5.30983e+06
5.20306e+06
5.16046e+06
5.07007e+06
4.76699e+06
5.44187e+06
5.51747e+06
5.05473e+06
6.15466e+06
5.3269e+06
4.12697e+06
4.37028e+06
4.5846e+06
5.93961e+06
5.04869e+06
4.60552e+06
4.50349e+06
6.07954e+06
4.51961e+06
5.3133e+06
5.47068e+06
4.83785e+06
4.20249e+06
4.89327e+06
4.15006e+06
5.43666e+06
5.32836e+06
5.53618e+06
5.55217e+06
6.14714e+06
5.15498e+06
3.47738e+06
4.85656e+06
4.87354e+06
4.19656e+06
4.5113e+06
5.11012e+06
5.21662e+06
5.2626e+06
4.96467e+06
5.02417e+06
5.31132e+06
4.74975e+06
5.20672e+06
4.58267e+06
4.83172e+06
4.59979e+06
5.30583e+06
4.61616e+06
5.73454e+06
3.84301e+06
4.63097e+06
5.39989e+06
4.54963e+06
5.2854e+06
5.32054e+06
5.93558e+06
5.56269e+06
4.56652e+06
4.47133e+06
4.13239e+06
4.70582e+06
4.56407e+06
4.19694e+06
4.6963e+06
5.29139e+06
4.0411e+06
5.06846e+06
5.61568e+06
5.4929e+06
5.09353e+06
4.17182e+06
4.41864e+06
4.84505e+06
4.79719e+06
4.31763e+06
5.18602e+06
4.81088e+06
4.60358e+06
4.52201e+06
4.58634e+06
4.89959e+06
5.44116e+06
5.0496e+06
5.68709e+06
4.39766e+06
6.15999e+06
5.45734e+06
5.24849e+06
4.36209e+06
3.7183e+06
6.00989e+06
5.05958e+06
4.60846e+06
5.60764e+06
4.33981e+06
5.69811e+06
3.99856e+06
4.13961e+06
4.58189e+06
5.38621e+06
5.26847e+06
4.27601e+06
4.79644e+06
5.72939e+06
5.34328e+06
4.6749e+06
4.95765e+06
5.77839e+06
5.17885e+06
4.51043e+06
5.61106e+06
5.61298e+06
5.36402e+06
5.32668e+06
4.4825e+06
3.77192e+06
4.93514e+06
5.0088e+06
4.04527e+06
4.91223e+06
5.98806e+06
5.86186e+06
5.60117e+06
4.20031e+06
5.39597e+06
4.17117e+06
5.017e+06
4.56017e+06
5.198e+06
4.01483e+06
4.96701e+06
4.35371e+06
5.51501e+06
4.3453e+06
5.68997e+06
5.60843e+06
5.1188e+06
5.51897e+06
4.24112e+06
4.58394e+06
5.36659e+06
5.32962e+06
6.01328e+06
5.48629e+06
4.29946e+06
5.6528e+06
4.04423e+06
4.43148e+06
5.25161e+06
5.81282e+06
5.1912e+06
5.16699e+06
4.53008e+06
5.35102e+06
4.98027e+06
5.66946e+06
5.35351e+06
4.77009e+06
4.39751e+06
3.93101e+06
5.31889e+06
4.61805e+06
4.03535e+06
4.34025e+06
4.69091e+06
4.50943e+06
4.67782e+06
5.30399e+06
4.38949e+06
5.21472e+06
4.40783e+06
5.91607e+06
4.94695e+06
4.26632e+06
5.84688e+06
4.47723e+06
4.10196e+06
5.18215e+06
4.19634e+06
4.41849e+06
4.53771e+06
4.79916e+06
3.89871e+06
4.47479e+06
4.26386e+06
5.05494e+06
4.54542e+06
4.74714e+06
4.76762e+06
5.11357e+06
5.74231e+06
4.78468e+06
4.92816e+06
5.25211e+06
3.91629e+06
5.86682e+06
5.17088e+06
4.51789e+06
3.8501e+06
4.44482e+06
5.75762e+06
5.20115e+06
5.18281e+06
5.13414e+06
4.68527e+06
5.03323e+06
4.90288e+06
5.56652e+06
5.48434e+06
4.78913e+06
5.81219e+06
3.82779e+06
4.76454e+06
5.30063e+06
4.84559e+06
4.45249e+06
4.89904e+06
5.03237e+06
4.99321e+06
4.89766e+06
5.27759e+06
5.87903e+06
4.80083e+06
5.37446e+06
6.05054e+06
4.2493e+06
5.13937e+06
4.96326e+06
3.97529e+06
4.23557e+06
5.60023e+06
5.03213e+06
4.58008e+06
4.92358e+06
4.49359e+06
4.94372e+06
5.60798e+06
4.77382e+06
4.84423e+06
5.09893e+06
4.29354e+06
5.48872e+06
5.2699e+06
4.48025e+06
4.34835e+06
5.35261e+06
5.13396e+06
4.4384e+06
5.61247e+06
5.72335e+06
5.58243e+06
4.55572e+06
5.66109e+06
5.64353e+06
4.69095e+06
5.67136e+06
5.22312e+06
5.49223e+06
3.60463e+06
4.63361e+06
4.19437e+06
5.19679e+06
4.66093e+06
5.43047e+06
4.85714e+06
3.54968e+06
4.76826e+06
5.47458e+06
5.50566e+06
3.83393e+06
5.84431e+06
5.54622e+06
5.43676e+06
5.45697e+06
4.32708e+06
4.71505e+06
5.00343e+06
5.22272e+06
5.13702e+06
5.89056e+06
4.06996e+06
4.38056e+06
5.99822e+06
4.62128e+06
5.70349e+06
5.48236e+06
3.99053e+06
5.15145e+06
5.53826e+06
5.86149e+06
5.79342e+06
4.24055e+06
5.11947e+06
4.00859e+06
5.67762e+06
4.58609e+06
4.93305e+06
4.73393e+06
5.06173e+06
5.18483e+06
4.14028e+06
4.79627e+06
3.93043e+06
3.80617e+06
5.40116e+06
5.3433e+06
4.42668e+06
5.10539e+06
5.0902e+06
4.42155e+06
5.01367e+06
5.75096e+06
4.16424e+06
4.0122e+06
4.76948e+06
4.32822e+06
6.17823e+06
4.14491e+06
5.68121e+06
4.53242e+06
4.67272e+06
4.51731e+06
4.38433e+06
5.61528e+06
4.48516e+06
4.32168e+06
5.27765e+06
5.37134e+06
3.77872e+06
4.56778e+06
4.9486e+06
4.72418e+06
4.50476e+06
4.60543e+06
5.47415e+06
3.83438e+06
4.23367e+06
4.49757e+06
5.64136e+06
4.72069e+06
5.14403e+06
4.8698e+06
4.08102e+06
5.51372e+06
4.35669e+06
4.61418e+06
5.09997e+06
4.34112e+06
5.02596e+06
4.60468e+06
5.75986e+06
4.24196e+06
5.4838e+06
5.69395e+06
5.10858e+06
4.72859e+06
3.96966e+06
4.168e+06
5.1202e+06
5.25728e+06
4.69901e+06
5.19421e+06
4.69187e+06
4.15129e+06
5.72962e+06
4.03224e+06
4.32972e+06
5.15877e+06
4.48019e+06
5.9422e+06
5.16616e+06
4.00233e+06
4.40388e+06
4.1927e+06
3.96388e+06
5.08473e+06
5.29905e+06
4.11403e+06
5.18636e+06
5.67435e+06
5.16712e+06
5.60386e+06
4.85323e+06
5.77792e+06
5.62058e+06
5.32883e+06
4.61316e+06
5.10866e+06
5.59859e+06
5.62116e+06
4.42933e+06
4.42461e+06
3.74416e+06
4.42142e+06
3.84026e+06
4.27844e+06
4.94502e+06
5.00861e+06
4.2318e+06
4.69616e+06
5.85533e+06
5.8121e+06
6.02907e+06
5.36014e+06
5.46809e+06
4.19662e+06
5.33118e+06
5.19242e+06
4.35598e+06
4.47646e+06
4.58379e+06
5.91948e+06
4.86608e+06
3.81738e+06
4.77211e+06
5.06132e+06
5.4598e+06
5.27578e+06
6.04821e+06
4.36162e+06
5.25055e+06
4.65452e+06
4.44172e+06
4.63627e+06
4.29571e+06
4.25752e+06
4.51129e+06
4.0805e+06
5.27581e+06
3.92993e+06
5.51415e+06
5.02168e+06
5.33834e+06
4.7427e+06
4.41189e+06
5.13406e+06
4.71349e+06
5.3193e+06
4.17951e+06
5.77836e+06
4.37137e+06
4.49722e+06
4.456e+06
3.8088e+06
4.96027e+06
5.01002e+06
4.583e+06
6.1497e+06
5.93518e+06
4.2683e+06
3.54785e+06
5.00768e+06
4.89419e+06
4.11093e+06
4.5869e+06
5.30879e+06
5.03539e+06
4.53364e+06
4.36496e+06
3.59649e+06
4.8817e+06
4.71512e+06
5.09037e+06
5.36658e+06
5.45513e+06
4.99655e+06
4.36745e+06
4.01734e+06
4.25667e+06
4.65587e+06
4.23515e+06
4.18292e+06
4.72567e+06
5.73632e+06
5.83447e+06
4.70657e+06
4.60402e+06
4.45106e+06
4.38432e+06
4.43775e+06
4.67616e+06
4.3489e+06
4.44153e+06
4.56724e+06
5.05531e+06
5.20999e+06
4.68605e+06
4.23978e+06
4.99963e+06
4.79371e+06
6.00219e+06
5.01517e+06
5.30918e+06
4.25152e+06
4.64265e+06
5.37055e+06
5.43972e+06
3.9076e+06
4.15114e+06
4.2013e+06
4.65123e+06
4.3521e+06
5.08128e+06
5.34976e+06
3.81536e+06
4.69643e+06
3.68538e+06
4.74966e+06
4.75004e+06
4.01339e+06
3.92828e+06
3.8698e+06
4.24049e+06
4.48328e+06
4.31689e+06
4.88225e+06
5.1296e+06
4.30953e+06
5.1009e+06
5.12996e+06
4.70302e+06
5.08979e+06
4.85103e+06
4.21474e+06
5.41803e+06
5.05238e+06
5.09811e+06
5.21398e+06
4.89919e+06
5.1473e+06
5.29694e+06
4.96424e+06
4.49955e+06
4.09685e+06
4.9164e+06
5.60848e+06
4.10619e+06
4.18077e+06
5.01783e+06
4.22718e+06
4.28727e+06
4.7074e+06
4.71236e+06
4.35952e+06
5.2363e+06
4.23822e+06
4.73974e+06
4.37634e+06
4.68089e+06
5.12764e+06
5.2337e+06
4.86489e+06
5.62791e+06
5.37092e+06
5.16292e+06
4.63141e+06
4.11935e+06
4.8767e+06
4.35997e+06
4.23865e+06
4.24073e+06
3.48744e+06
5.12056e+06
5.48443e+06
4.31492e+06
4.96525e+06
3.73601e+06
4.46994e+06
3.41738e+06
4.79225e+06
4.31199e+06
4.41032e+06
5.49294e+06
6.17095e+06
4.09221e+06
4.99456e+06
5.04367e+06
4.90255e+06
3.89522e+06
5.45488e+06
5.35073e+06
5.54033e+06
4.94882e+06
4.72303e+06
5.52835e+06
5.08236e+06
4.80333e+06
4.01807e+06
4.8795e+06
4.33624e+06
4.08042e+06
4.4785e+06
4.25761e+06
4.36788e+06
4.33734e+06
4.29879e+06
5.41201e+06
5.85308e+06
4.38459e+06
4.38303e+06
5.0302e+06
4.95585e+06
5.1369e+06
4.45784e+06
4.47254e+06
4.51511e+06
5.22923e+06
4.01664e+06
5.17655e+06
4.46946e+06
5.34532e+06
4.8288e+06
5.73401e+06
4.28568e+06
5.88105e+06
4.2082e+06
4.35799e+06
5.96712e+06
5.35867e+06
4.90068e+06
4.20716e+06
4.18162e+06
5.5999e+06
4.52358e+06
5.67526e+06
5.9233e+06
4.4052e+06
4.42823e+06
4.34886e+06
5.55405e+06
4.32552e+06
5.6514e+06
4.67662e+06
4.96532e+06
4.99424e+06
4.5221e+06
4.43903e+06
5.17045e+06
5.61292e+06
5.30672e+06
5.09416e+06
4.07979e+06
4.97296e+06
5.53426e+06
5.93373e+06
5.71978e+06
4.69857e+06
5.12908e+06
6.02369e+06
5.23492e+06
4.56918e+06
4.93495e+06
5.95033e+06
4.98653e+06
4.67145e+06
6.02337e+06
4.61372e+06
4.18725e+06
5.60671e+06
4.57291e+06
5.85536e+06
5.87395e+06
5.54324e+06
5.36854e+06
4.81418e+06
5.30652e+06
4.39959e+06
5.55407e+06
4.65262e+06
4.69047e+06
5.16945e+06
4.27077e+06
3.87968e+06
5.75386e+06
4.81556e+06
4.99563e+06
3.94913e+06
5.01515e+06
4.58294e+06
4.33716e+06
3.92142e+06
5.1123e+06
5.0217e+06
4.48152e+06
4.80798e+06
4.6846e+06
5.44131e+06
5.46845e+06
5.38285e+06
5.56279e+06
4.70282e+06
4.40156e+06
5.3246e+06
4.70739e+06
3.56791e+06
5.85876e+06
4.54062e+06
5.52595e+06
5.63307e+06
5.70554e+06
5.16362e+06
4.21524e+06
4.58566e+06
3.93519e+06
4.17604e+06
5.37272e+06
4.65964e+06
4.8255e+06
4.07518e+06
5.0135e+06
4.58489e+06
4.49807e+06
5.17752e+06
4.64602e+06
4.70567e+06
4.23409e+06
5.85552e+06
4.58595e+06
5.19438e+06
5.74849e+06
4.27004e+06
5.67182e+06
4.87998e+06
4.91363e+06
5.25326e+06
5.58334e+06
5.44148e+06
5.17469e+06
5.4828e+06
4.48422e+06
4.66588e+06
5.25971e+06
5.82795e+06
4.70144e+06
4.7765e+06
5.28644e+06
4.42893e+06
4.61478e+06
4.67345e+06
4.56281e+06
4.10046e+06
4.71548e+06
4.73955e+06
4.82412e+06
5.40552e+06
4.38234e+06
4.86619e+06
3.8009e+06
5.28714e+06
5.16145e+06
4.56987e+06
3.5377e+06
5.45864e+06
5.23682e+06
5.24903e+06
5.08998e+06
5.42508e+06
5.12383e+06
5.37067e+06
5.05452e+06
4.43525e+06
4.92073e+06
5.20297e+06
4.70897e+06
5.92539e+06
4.31045e+06
4.21976e+06
4.61143e+06
5.16657e+06
4.36304e+06
3.97236e+06
3.73262e+06
4.99632e+06
5.2484e+06
5.47214e+06
4.55261e+06
5.33581e+06
4.04876e+06
5.05668e+06
5.39777e+06
4.78701e+06
4.42651e+06
5.17177e+06
5.8801e+06
4.28915e+06
5.36811e+06
5.14304e+06
4.11697e+06
4.45693e+06
4.74128e+06
5.09668e+06
5.33696e+06
5.92571e+06
5.78966e+06
5.73808e+06
5.335e+06
4.71069e+06
4.43022e+06
4.35686e+06
4.84912e+06
4.39017e+06
5.58824e+06
5.71822e+06
4.42388e+06
5.77055e+06
4.85436e+06
5.88548e+06
6.07062e+06
4.77738e+06
4.50505e+06
4.8431e+06
4.50265e+06
3.99264e+06
3.85755e+06
4.59529e+06
5.3092e+06
4.49521e+06
5.6525e+06
5.61576e+06
4.70196e+06
4.39209e+06
4.68431e+06
4.92963e+06
3.83648e+06
4.85814e+06
4.58819e+06
4.75043e+06
4.29277e+06
4.98354e+06
5.33806e+06
4.86729e+06
3.94303e+06
3.70778e+06
4.24446e+06
5.24228e+06
4.19709e+06
3.94555e+06
5.78137e+06
5.15316e+06
3.79855e+06
5.53148e+06
5.67073e+06
3.96832e+06
4.95281e+06
4.92584e+06
4.0842e+06
4.6255e+06
3.73112e+06
5.37185e+06
4.28615e+06
4.13551e+06
5.26923e+06
4.17475e+06
5.01869e+06
5.59234e+06
5.3507e+06
4.60425e+06
5.06002e+06
4.31289e+06
4.98459e+06
6.14973e+06
5.39658e+06
5.51039e+06
4.3441e+06
4.324e+06
4.80759e+06
3.91731e+06
5.33593e+06
5.47538e+06
5.2483e+06
5.88039e+06
5.44419e+06
4.39339e+06
5.37538e+06
4.44741e+06
4.2034e+06
4.80564e+06
3.84458e+06
4.54142e+06
4.78274e+06
5.66435e+06
4.45773e+06
5.25375e+06
4.24615e+06
4.70314e+06
4.9531e+06
4.79098e+06
3.58522e+06
4.80708e+06
4.18178e+06
5.84367e+06
5.42863e+06
4.52565e+06
3.66829e+06
5.33575e+06
4.44211e+06
4.23504e+06
3.75079e+06
4.53025e+06
4.40138e+06
4.93857e+06
4.62385e+06
4.25373e+06
4.20931e+06
4.5484e+06
4.67255e+06
5.08402e+06
5.39626e+06
5.01627e+06
4.43571e+06
4.598e+06
4.61575e+06
4.80177e+06
5.26731e+06
3.93373e+06
5.06737e+06
5.17426e+06
4.74169e+06
5.5049e+06
5.21757e+06
5.07095e+06
4.91008e+06
5.27709e+06
4.39549e+06
4.45596e+06
4.43728e+06
4.73413e+06
3.8548e+06
4.60479e+06
4.31396e+06
4.82886e+06
4.6997e+06
4.75477e+06
4.57819e+06
5.51416e+06
4.8455e+06
4.87147e+06
4.2939e+06
4.27929e+06
4.3973e+06
5.05747e+06
5.61545e+06
4.09714e+06
4.74984e+06
4.10356e+06
4.78737e+06
4.9872e+06
4.84467e+06
3.65707e+06
4.25979e+06
4.86992e+06
4.98921e+06
4.6656e+06
4.2137e+06
4.06229e+06
4.26549e+06
4.38634e+06
4.01293e+06
4.39355e+06
5.29286e+06
4.79597e+06
4.76e+06
4.74866e+06
4.06154e+06
5.36591e+06
4.64877e+06
4.47273e+06
4.20244e+06
3.92064e+06
4.34832e+06
4.55745e+06
4.10655e+06
4.39427e+06
4.48287e+06
4.65261e+06
6.11523e+06
4.12621e+06
4.45199e+06
5.94808e+06
4.96143e+06
5.04841e+06
4.8673e+06
5.50007e+06
4.21761e+06
5.26144e+06
5.03069e+06
4.67774e+06
4.27763e+06
4.19666e+06
5.05701e+06
4.16791e+06
5.22709e+06
5.43799e+06
4.7814e+06
4.53231e+06
4.70731e+06
5.42862e+06
5.41182e+06
5.6547e+06
4.08454e+06
5.36322e+06
4.90505e+06
5.12749e+06
3.99221e+06
4.44473e+06
3.64982e+06
4.43059e+06
4.55098e+06
4.07207e+06
4.44962e+06
6.00005e+06
4.45651e+06
4.22337e+06
5.69672e+06
4.66562e+06
5.75519e+06
5.61413e+06
5.59482e+06
4.54475e+06
5.87537e+06
4.02146e+06
4.50244e+06
5.25407e+06
5.62167e+06
4.0834e+06
4.62466e+06
4.36072e+06
4.77367e+06
3.5354e+06
3.69134e+06
4.95752e+06
5.88062e+06
3.99869e+06
4.24318e+06
4.93438e+06
4.33792e+06
5.25884e+06
4.9241e+06
4.4193e+06
5.1267e+06
5.06403e+06
5.12148e+06
4.6006e+06
5.30539e+06
4.88824e+06
4.57191e+06
5.82048e+06
4.36487e+06
5.66267e+06
4.88869e+06
5.26134e+06
4.75126e+06
5.14778e+06
5.65912e+06
4.65113e+06
4.8014e+06
4.68148e+06
4.67259e+06
4.45271e+06
5.97923e+06
4.57668e+06
5.97084e+06
5.10174e+06
4.13634e+06
4.08034e+06
4.74078e+06
3.83822e+06
4.64843e+06
4.90902e+06
4.53201e+06
4.75101e+06
5.12183e+06
5.63633e+06
5.00866e+06
4.98201e+06
5.00155e+06
4.46093e+06
3.77363e+06
4.6632e+06
4.36631e+06
4.22962e+06
4.30314e+06
3.41061e+06
4.55477e+06
4.1125e+06
5.72988e+06
4.9251e+06
4.31521e+06
4.88528e+06
6.02361e+06
4.98651e+06
5.53185e+06
4.6474e+06
5.60045e+06
4.34413e+06
5.15789e+06
4.67912e+06
5.63009e+06
5.18713e+06
4.345e+06
4.71349e+06
4.95852e+06
5.23812e+06
4.95012e+06
5.01697e+06
4.49918e+06
5.13627e+06
5.87526e+06
3.88559e+06
5.8752e+06
5.12206e+06
4.52041e+06
3.87895e+06
4.70554e+06
5.12935e+06
4.48175e+06
4.17902e+06
4.38723e+06
4.2518e+06
3.53244e+06
4.04627e+06
3.85697e+06
4.64678e+06
4.78053e+06
4.60456e+06
4.13049e+06
4.92161e+06
5.09755e+06
5.79004e+06
4.51447e+06
3.95013e+06
5.60022e+06
4.60395e+06
3.75814e+06
5.11072e+06
5.90364e+06
4.86338e+06
4.6875e+06
4.42813e+06
4.70887e+06
3.97276e+06
4.10315e+06
4.93049e+06
4.67155e+06
4.53344e+06
3.70812e+06
5.3948e+06
4.63117e+06
4.44467e+06
5.07262e+06
4.58979e+06
5.7593e+06
4.20378e+06
5.86388e+06
4.5336e+06
5.38436e+06
5.31866e+06
5.02807e+06
4.35244e+06
3.83258e+06
5.25132e+06
5.17762e+06
4.96187e+06
4.08113e+06
4.80717e+06
4.75879e+06
4.52622e+06
4.16803e+06
4.44059e+06
4.76993e+06
4.55648e+06
4.00928e+06
5.3979e+06
4.77246e+06
4.39316e+06
4.65983e+06
5.90511e+06
5.40456e+06
5.82512e+06
4.95452e+06
4.73382e+06
5.86134e+06
4.6317e+06
4.38711e+06
4.87702e+06
4.08912e+06
5.80492e+06
4.61406e+06
4.86653e+06
5.45107e+06
4.69999e+06
5.07217e+06
5.04168e+06
3.81514e+06
5.98996e+06
3.80678e+06
4.15442e+06
3.81054e+06
4.72232e+06
5.56532e+06
4.4725e+06
4.05121e+06
5.29275e+06
5.74699e+06
5.59563e+06
4.14111e+06
4.599e+06
3.70715e+06
4.83591e+06
5.88039e+06
5.53418e+06
4.84887e+06
5.27341e+06
4.18743e+06
4.07286e+06
3.80584e+06
5.09966e+06
5.8368e+06
5.78758e+06
3.98361e+06
4.89039e+06
4.63833e+06
4.53473e+06
5.28842e+06
4.25509e+06
5.32835e+06
4.56575e+06
4.46336e+06
4.75516e+06
5.22486e+06
4.33937e+06
5.04788e+06
4.83498e+06
5.64403e+06
5.25897e+06
4.58833e+06
4.27816e+06
4.46041e+06
5.62525e+06
4.95054e+06
4.80068e+06
5.10265e+06
3.70765e+06
4.65955e+06
3.86059e+06
5.57737e+06
4.57209e+06
4.28726e+06
4.39029e+06
5.15148e+06
4.51344e+06
5.7376e+06
4.70768e+06
4.8911e+06
4.69647e+06
4.29807e+06
4.4395e+06
4.61915e+06
4.48419e+06
4.13838e+06
3.70301e+06
5.43565e+06
3.76408e+06
4.58412e+06
3.7959e+06
5.00408e+06
5.29434e+06
4.62166e+06
5.3822e+06
4.50292e+06
5.0495e+06
5.274e+06
5.09137e+06
4.69775e+06
4.37774e+06
4.8984e+06
5.3456e+06
4.67314e+06
5.20275e+06
4.92339e+06
5.35351e+06
4.4824e+06
4.95945e+06
5.66921e+06
4.1246e+06
4.93359e+06
5.84587e+06
4.09543e+06
4.03633e+06
4.3339e+06
5.06124e+06
4.0551e+06
4.8194e+06
5.91846e+06
3.98121e+06
4.32997e+06
3.85586e+06
3.92538e+06
6.02719e+06
4.92472e+06
4.11721e+06
4.44744e+06
4.80824e+06
4.40696e+06
5.1043e+06
5.23757e+06
3.95987e+06
6.08216e+06
4.30755e+06
5.26464e+06
4.05128e+06
3.98947e+06
5.19973e+06
5.36575e+06
4.83507e+06
4.93505e+06
4.94614e+06
4.07018e+06
5.88219e+06
4.80997e+06
5.70066e+06
5.75965e+06
4.00745e+06
4.41428e+06
4.81076e+06
3.86867e+06
5.10032e+06
4.20355e+06
5.55407e+06
4.48626e+06
4.33158e+06
3.91221e+06
4.72693e+06
4.49905e+06
4.17251e+06
5.75004e+06
4.77884e+06
5.71515e+06
5.48404e+06
5.58637e+06
3.93118e+06
5.57083e+06
4.77484e+06
5.04207e+06
4.98553e+06
4.26754e+06
3.84557e+06
4.77351e+06
4.06225e+06
4.27082e+06
4.99635e+06
4.50488e+06
5.81173e+06
5.16684e+06
5.00268e+06
3.91257e+06
3.81847e+06
5.32697e+06
4.2025e+06
4.25582e+06
5.62318e+06
4.98683e+06
5.02693e+06
5.01708e+06
4.18054e+06
4.17143e+06
4.27563e+06
4.85543e+06
4.32983e+06
4.60137e+06
4.78424e+06
5.06803e+06
5.6419e+06
4.40942e+06
4.30064e+06
4.71697e+06
5.02013e+06
4.20905e+06
4.27085e+06
3.70621e+06
4.19833e+06
4.83072e+06
4.70026e+06
4.96925e+06
4.27335e+06
4.0592e+06
5.14039e+06
3.9992e+06
4.74103e+06
4.47938e+06
5.0528e+06
4.65365e+06
5.8801e+06
4.18406e+06
5.15881e+06
5.82637e+06
4.69602e+06
5.57337e+06
5.00481e+06
3.6524e+06
4.8779e+06
4.33331e+06
4.86327e+06
3.8961e+06
4.35644e+06
3.96426e+06
4.79701e+06
4.29083e+06
4.33527e+06
5.17898e+06
4.44527e+06
4.53751e+06
5.31487e+06
4.78909e+06
4.31577e+06
4.6001e+06
4.86251e+06
4.99889e+06
4.77692e+06
4.2302e+06
5.44791e+06
4.86947e+06
5.86403e+06
5.92055e+06
5.77982e+06
5.50655e+06
5.67893e+06
4.58061e+06
5.51582e+06
5.13025e+06
5.75223e+06
5.53466e+06
5.73041e+06
5.43435e+06
4.29082e+06
5.38646e+06
5.38339e+06
4.56275e+06
5.23911e+06
4.8928e+06
4.16942e+06
4.74927e+06
5.77153e+06
5.88313e+06
4.6411e+06
4.49396e+06
5.38313e+06
4.94533e+06
4.58468e+06
5.35323e+06
4.15067e+06
4.18069e+06
4.65703e+06
4.78253e+06
4.16549e+06
4.8345e+06
5.56706e+06
4.34315e+06
5.24513e+06
5.32273e+06
5.86386e+06
5.51591e+06
4.71426e+06
4.64785e+06
5.51995e+06
4.40704e+06
5.29726e+06
5.14405e+06
5.65355e+06
4.9479e+06
4.47689e+06
5.69731e+06
5.55295e+06
4.84531e+06
5.01005e+06
5.03266e+06
4.74927e+06
5.05281e+06
3.9992e+06
5.62318e+06
4.7735e+06
5.58637e+06
5.48404e+06
5.36575e+06
5.35351e+06
4.67314e+06
5.3456e+06
4.62166e+06
4.27816e+06
4.83498e+06
5.29275e+06
5.56532e+06
5.80492e+06
3.53244e+06
4.49919e+06
4.55477e+06
5.87537e+06
5.46809e+06
4.49757e+06
5.85551e+06
5.25327e+06
4.33792e+06
3.69134e+06
3.53539e+06
4.43059e+06
4.86992e+06
5.06737e+06
4.44744e+06
5.304e+06
4.26633e+06
4.92584e+06
4.86729e+06
4.75043e+06
4.29879e+06
3.89871e+06
5.71822e+06
5.39777e+06
4.99632e+06
5.45864e+06
3.56791e+06
3.92142e+06
4.52358e+06
5.5999e+06
4.8288e+06
5.17655e+06
5.1369e+06
4.38459e+06
4.33624e+06
4.09221e+06
4.96525e+06
5.05531e+06
4.03223e+06
4.9241e+06
5.15145e+06
4.42823e+06
4.29354e+06
4.32973e+06
4.94861e+06
4.76948e+06
5.20039e+06
5.56269e+06
5.06803e+06
4.9336e+06
4.0834e+06
3.83393e+06
5.60023e+06
5.25727e+06
5.12908e+06
5.60848e+06
4.89919e+06
4.89904e+06
4.51789e+06
4.98027e+06
5.35102e+06
4.53231e+06
4.82293e+06
3.68866e+06
4.38339e+06
5.21757e+06
5.57083e+06
5.63907e+06
4.43728e+06
5.61542e+06
5.34329e+06
4.98354e+06
4.93438e+06
5.88548e+06
5.77055e+06
4.33937e+06
5.40145e+06
5.58936e+06
4.3592e+06
4.2939e+06
4.29934e+06
5.32835e+06
5.20379e+06
4.99959e+06
4.32996e+06
4.92472e+06
5.5049e+06
4.75528e+06
5.0088e+06
5.11072e+06
5.29434e+06
5.09374e+06
5.10174e+06
5.52487e+06
5.45107e+06
5.04831e+06
5.69812e+06
5.44187e+06
4.42155e+06
4.13551e+06
4.60552e+06
5.01351e+06
5.03935e+06
5.57337e+06
4.35669e+06
4.1411e+06
4.39316e+06
5.53618e+06
5.55217e+06
4.56922e+06
4.87147e+06
5.00156e+06
3.66361e+06
4.36248e+06
4.67145e+06
4.84562e+06
4.30064e+06
4.96027e+06
5.2484e+06
5.0902e+06
3.54785e+06
4.0411e+06
4.96925e+06