# vtk DataFile Version 3.0.
comment
ASCII

DATASET POLYDATA
POINTS 992 double
0.693221 0.67608 0.69617
0.701399 0.152111 0.0131564
0.273651 0.490278 0.274504
0.558287 0.296296 0.281249
0.47426 0.0742707 0.487839
0.653403 0.442811 0.0889914
0.397936 0.668651 0.138827
0.610674 0.126741 0.533911
0.769596 0.2799 0.298119
0.726602 0.696125 0.267621
0.405198 0.60571 0.0887948
0.555312 0.716178 0.705885
0.0732754 0.136258 0.523126
0.460777 0.588869 0.242105
0.548269 0.283728 0.1737
0.399219 0.0793236 0.565232
0.560394 0.652035 0.474378
0.163985 0.392547 0.579888
0.662175 0.136507 0.091529
0.494837 0.442068 0.350497
0.317586 0.504147 0.167579
0.450464 0.0193811 0.0457983
0.109855 0.365682 0.035894
0.574418 0.689974 0.10421
0.309488 0.167768 0.569859
0.152019 0.340351 0.462034
0.443127 0.591107 0.614179
0.143234 0.414012 0.181707
0.212506 0.164232 0.548734
0.0545012 0.174613 0.413491
0.246138 0.00164683 0.52072
0.134017 0.444843 0.736753
0.613002 0.519719 0.546708
0.290811 0.0951557 0.13499
0.58634 0.292827 0.00684227
0.305431 0.523723 0.52057
0.507997 0.409889 0.508768
0.0441485 0.696395 0.731417
0.208677 0.700695 0.0694018
0.222988 0.716415 0.258898
0.0373111 0.724126 0.525423
0.536136 0.503458 0.224441
0.410131 0.524825 0.514406
0.00339844 0.50615 0.704183
0.155704 0.566118 0.280356
0.459268 0.613821 0.138347
0.332022 0.475263 0.438936
0.496133 0.253489 0.60979
0.193918 0.221308 0.00469084
0.348089 0.366592 0.275974
0.382555 0.631804 0.531438
0.12477 0.0870935 0.173112
0.583881 0.234556 0.344313
0.616003 0.11517 0.187541
0.650513 0.135289 0.284754
0.716 0.00474404 0.447243
0.0671081 0.0767878 0.257879
0.0807768 0.405353 0.550401
0.578097 0.563126 0.632361
0.203776 0.23293 0.620717
0.127007 0.648317 0.131912
0.575742 0.430523 0.368382
0.45891 0.520202 0.194219
0.742124 0.0149506 0.689552
0.624827 0.40457 0.422683
0.0019789 0.428912 0.446856
0.284817 0.639171 0.278417
0.0783467 0.0469196 0.446339
0.56945 0.451476 0.109713
0.294053 0.189013 0.260263
0.64658 0.096979 0.459785
0.0729418 0.356435 0.144284
0.00761684 0.356551 0.573701
0.576857 0.0337962 0.431755
0.435048 0.661396 0.213353
0.382617 0.677492 0.279447
0.334664 0.418909 0.0641454
0.292302 0.0861493 0.4468
0.571041 0.0701165 0.685593
0.334192 0.589183 0.446886
0.0113936 0.190494 0.604786
0.329444 0.146251 0.19942
0.135023 0.327451 0.229902
0.0480266 0.692081 0.425548
0.0535025 0.566506 0.141473
0.10538 0.167977 0.149642
0.151817 0.0583527 0.333896
0.106646 0.450755 0.456719
0.152335 0.527701 0.161243
0.0540873 0.734317 0.214154
0.248499 0.5142 0.129861
0.22393 0.447897 0.645266
0.043866 0.0944629 0.132293
0.0624129 0.594729 0.560516
0.40887 0.300502 0.469942
0.361084 0.0335607 0.0715289
0.110846 0.590129 0.648891
0.0619443 0.363569 0.395385
0.281423 0.412043 0.532133
0.233783 0.267555 0.516475
0.70133 0.728046 0.600457
0.710039 0.567953 0.521507
0.715356 0.641177 0.15852
0.423565 0.364532 0.00262259
0.303867 0.352813 0.410922
0.14818 0.558008 0.477311
0.365137 0.192515 0.361295
0.453362 0.544069 0.108896
0.471408 0.308436 0.0904507
0.725145 0.655444 0.479112
0.213494 0.33731 0.120493
0.697496 0.440331 0.240963
0.321495 0.0964037 0.521335
0.338155 0.473847 0.33523
0.256901 0.573356 0.209652
0.435993 0.254151 0.171626
0.475474 0.599871 0.0464701
0.155399 0.149124 0.22789
0.681 0.319912 0.717641
0.498769 0.56231 0.450149
0.374833 0.272834 0.0736292
0.537123 0.58415 0.287848
0.667708 0.590419 0.661335
0.467201 0.025299 0.581191
0.507915 0.113532 0.0259221
0.600026 0.251598 0.56222
0.731345 0.0996583 0.428534
0.652409 0.488415 0.660955
0.271674 0.0729039 0.595945
0.601683 0.472283 0.0175246
0.657755 0.172951 0.39386
0.166711 0.0655773 0.548323
0.451681 0.220486 0.441936
0.018823 0.292885 0.639016
0.251482 0.0902695 0.23777
0.127981 0.63047 0.382089
0.341045 0.48539 0.611922
0.152991 0.344252 0.333784
0.796355 0.238186 0.521177
0.580049 0.60455 0.392538
0.552823 0.697112 0.35231
0.128832 0.614662 0.0101986
0.348431 0.699112 0.461233
0.0393381 0.32919 0.491172
0.0460236 0.41467 0.0580756
0.265023 0.0358835 0.0664056
0.0347934 0.504381 0.488927
0.510876 0.34775 0.673574
0.287184 0.710271 0.00614182
0.236966 0.355112 0.21795
0.479322 0.733565 0.270216
0.416355 0.560564 0.736449
0.293182 0.585854 0.73328
0.518721 0.175694 0.185553
0.234424 0.64812 0.433255
0.233242 0.641281 0.741796
0.469709 0.225812 0.250405
0.700463 0.0640465 0.150528
0.109096 0.705457 0.294358
0.23341 0.161996 0.449011
0.0858457 0.232777 0.237533
0.22016 0.439593 0.430667
0.283396 0.652334 0.53336
0.261835 0.596454 0.623139
0.415227 0.100791 0.0447834
0.0332534 0.653256 0.339831
0.472692 0.152795 0.668149
0.64394 0.729444 0.293652
0.577167 0.480926 0.293945
0.556723 0.29964 0.0748188
0.697624 0.0533626 0.251157
0.594625 0.129273 0.0416662
0.04151 0.499581 0.415432
0.635208 0.0141996 0.105857
0.345314 0.0529215 0.233248
0.5569 0.127569 0.43592
0.501644 0.647316 0.412432
0.371143 0.0629105 0.157575
0.0397778 0.459438 0.155542
0.429058 0.498175 0.0480172
0.639333 0.529575 0.124336
0.28901 0.250971 0.596351
0.46933 0.198862 0.0848869
0.268371 0.32362 0.0323853
0.511257 0.0505372 0.365367
0.12699 0.449624 0.0913097
0.370464 0.152298 0.115065
0.225089 0.595159 0.0872186
0.375168 0.0514044 0.47021
0.172895 0.189134 0.376105
0.42765 0.403756 0.628716
0.68059 0.231747 0.571183
0.202999 0.242087 0.281369
0.13768 0.723796 0.203625
0.503634 0.176797 0.36647
0.479372 0.257783 0.730283
0.440334 0.230039 0.530972
0.383306 0.159656 0.496437
0.672543 0.161423 0.57599
0.308128 0.260259 0.325963
0.0730132 0.138121 0.0345755
0.664565 0.210842 0.683874
0.468817 0.46349 0.439944
0.0291203 0.450552 0.33395
0.349571 0.0525913 0.380453
0.508456 0.558917 0.703925
0.206419 0.119947 0.124519
0.417399 0.307439 0.560475
0.138416 0.219952 0.469273
0.339982 0.280599 0.642835
0.0870338 0.649971 0.493068
0.544911 0.335008 0.58848
0.763207 0.313964 0.0636216
0.474191 0.50618 0.282929
0.621532 0.729501 0.743931
0.396414 0.728394 0.739802
0.143731 0.369573 0.103829
0.293495 0.28812 0.140128
0.38076 0.0565955 0.729419
0.610696 0.552468 0.227779
0.544158 0.0165329 0.169712
0.045239 0.443222 0.721398
0.423795 0.702512 0.610669
0.318623 0.235426 0.439122
0.400873 0.410615 0.375958
0.302414 0.61174 0.133656
0.635325 0.634883 0.577793
0.183584 0.433985 0.274898
1.4766 0.65011 0.562002
0.641573 0.0244234 0.486165
0.777179 0.55921 0.346206
0.0829346 0.0460969 0.736642
0.506453 0.445203 0.720682
0.376502 0.481145 0.244729
0.534733 0.536759 0.145084
0.621411 0.359893 0.0638131
0.286281 0.376404 0.132347
0.743506 0.0908529 0.740971
0.198207 0.0617635 0.437338
0.459441 0.633757 0.328831
0.0373495 0.693503 0.145636
0.420088 0.632839 0.418156
0.311345 0.694541 0.0962858
0.692358 0.305593 0.534243
0.198772 0.718164 0.364724
0.351257 0.578265 0.673241
0.493468 0.291053 0.406532
0.387981 0.356453 0.154794
0.719069 0.519388 0.442139
0.333032 0.144176 0.410738
0.23439 0.668253 0.160771
0.507014 0.729 0.452019
0.138225 0.462495 0.608334
0.62415 0.269861 0.458448
0.435139 0.183393 0.311444
0.480118 0.357407 0.34643
0.618899 0.0442666 0.586923
0.571589 0.0511067 0.509282
0.676521 0.559012 0.0161467
0.734384 0.272285 0.39957
0.539353 0.367829 0.110007
0.423546 0.726196 0.385015
0.425246 0.121616 0.397089
0.431223 0.0455989 0.656408
0.648701 0.366821 0.609703
0.165197 0.522143 0.0525834
0.712352 0.0737075 0.534006
0.644347 0.624128 0.475143
0.375914 0.582815 0.275252
0.573627 0.599135 0.0694142
0.607538 0.377296 0.156301
0.00139815 0.00556044 0.0720818
0.381295 0.57563 0.17184
0.533678 0.188234 0.523634
0.219445 0.63775 0.330428
0.217468 0.722664 0.716222
0.185372 0.380495 0.0424955
0.0932054 0.502237 0.550296
0.40056 0.400252 0.503417
0.0577288 0.62151 0.231501
0.265615 0.102013 0.686177
0.530725 0.357883 0.0239906
0.131467 0.122002 0.40967
0.575231 0.705231 0.264591
0.659685 0.486253 0.367956
0.0933303 0.400749 0.265423
0.388034 0.244528 0.260314
0.690157 0.695334 0.355369
0.692825 0.225769 0.293565
0.341788 0.351405 0.599059
0.583119 0.173761 0.627769
0.390076 0.735436 0.20641
0.752413 0.196734 0.0970733
0.30016 0.00849414 0.178055
0.165546 0.636404 0.566907
0.11525 0.521057 0.378213
0.320636 0.731048 0.256199
0.424899 0.00364203 0.127109
0.185335 0.270778 0.173893
0.599465 0.454961 0.200475
0.648699 0.228031 0.044067
0.59987 0.333069 0.531566
0.525306 0.0939065 0.580643
0.558863 0.093088 0.102644
0.727659 0.73874 0.171395
0.5892 0.27771 0.659306
0.353788 0.121089 0.296717
0.155786 0.0477544 0.235363
0.431413 0.733311 0.51587
0.183018 0.466653 0.533581
0.02299 0.0170599 0.347093
0.747685 0.288395 0.175464
0.380589 0.0209285 0.301347
0.205452 0.37265 0.709227
0.573308 0.48052 0.449027
0.117236 0.71425 0.0457312
0.700759 0.379031 0.136511
0.656258 0.303888 0.338145
0.273766 0.00499167 0.439032
0.627551 0.142756 0.722871
0.67869 0.535764 0.284846
0.578103 0.0494053 0.276683
0.481109 0.428517 0.0757465
0.573816 0.183108 0.106015
0.367584 0.625687 0.352782
0.30198 0.660519 0.687365
0.514894 0.505127 0.527664
0.213638 0.543769 0.710705
0.0487971 0.370199 0.733597
0.513837 0.167164 0.274834
0.401065 0.472751 0.136014
0.64301 0.706277 0.198154
0.28544 0.211431 0.690324
0.39891 0.470285 0.709848
0.257544 0.327507 0.319963
0.131976 0.165487 0.722601
0.311215 0.423463 0.192182
0.674653 0.276697 0.627591
0.493542 0.421266 0.188355
0.559453 0.189724 0.725495
0.490112 0.0156246 0.716351
0.0508397 0.137053 0.687921
0.481248 0.686472 0.0913791
0.392626 0.216534 0.60894
0.0606546 0.480327 0.637431
0.175753 0.0254059 0.0212099
0.593981 0.627096 0.710152
0.235013 0.336421 0.610884
0.34763 0.235951 0.532199
0.325353 0.661709 0.201371
0.0261678 0.598879 0.705931
0.44376 0.0829737 0.299787
0.24816 0.0968927 0.511229
0.542767 0.713285 0.561155
0.221284 0.274554 0.393844
0.131312 0.0825014 0.0836481
0.571721 0.334647 0.374666
0.732946 0.106062 0.0646447
0.495194 0.250695 0.323842
0.532991 0.639023 0.634159
0.71983 0.60363 0.292397
0.593934 0.208406 0.249366
0.185642 0.639809 0.666634
0.235297 0.570135 0.532024
1.46832 0.555978 0.102617
0.418995 0.302984 0.65578
[...]
POINT_DATA 992
SCALARS radius double 1
LOOKUP_TABLE default
0.055934
0.0392625
0.0398953
0.0440272
0.053854
0.0392354
0.0446101
0.0472776
0.0362128
0.0520288
0.0361933
0.0415069
0.0605628
0.0431131
0.0646993
0.0526171
0.0455406
0.037731
0.0462048
0.0455122
0.0405922
0.0457172
0.0392066
0.0426084
0.0498786
0.0635551
0.0614671
0.0528239
0.049598
0.052798
0.04629
0.0550199
0.0562498
0.0452328
0.0381093
0.0421518
0.0455636
0.0468096
0.0509238
0.0616264
0.0559346
0.0354609
0.0628637
0.0423851
0.0631911
0.0377929
0.056533
0.0548092
0.0430139
0.0637168
0.0490237
0.0399252
0.047882
0.0627311
0.0424851
0.0493272
0.0561135
0.0515863
0.046192
0.0506394
0.0646872
0.038585
0.0410288
0.0435133
0.0391508
0.0515185
0.0385993
0.0574582
0.0478291
0.0393727
0.0403442
0.0457202
0.0394795
0.0387253
0.0393338
0.0466379
0.0578395
0.0434881
0.0629111
0.0577367
0.0555436
0.0351435
0.0459782
0.0496167
0.0459834
0.046505
0.0592168
0.0559893
0.0620258
0.0447961
0.0389248
0.0591273
0.0510264
0.05198
0.0429729
0.0472351
0.0494615
0.0510688
0.0607025
0.0587553
0.0533978
0.0552899
0.0479961
0.063511
0.0612407
0.0608924
0.0400288
0.0384008
0.0514071
0.0431395
0.0418251
0.0594724
0.0372949
0.0410234
0.0607744
0.0498091
0.0461643
0.0483427
0.0633955
0.0528914
0.0531032
0.0461416
0.0400778
0.0360316
0.0522927
0.0478041
0.0488149
0.0631466
0.0555955
0.0522339
0.0609144
0.0594404
0.0520739
0.052864
0.0649313
0.0605243
0.0631413
0.0607821
0.0435275
0.0513401
0.0531985
0.0620781
0.0541143
0.0534327
0.044422
0.0490308
0.0385929
0.0528831
0.039343
0.0600629
0.0629109
0.0440336
0.0353516
0.0479422
0.0594819
0.0468554
0.0350793
0.0429384
0.0569886
0.0526356
0.0609866
0.0612391
0.05247
0.0556911
0.0432579
0.0457336
0.0640122
0.0411134
0.0485664
0.0358484
0.0578405
0.0372848
0.0354537
0.0506901
0.036452
0.0574232
0.0402162
0.0443197
0.0632066
0.0418422
0.0559039
0.0399233
0.0586256
0.0630841
0.0565859
0.0458441
0.054829
0.0557659
0.0495119
0.046036
0.0570657
0.0358146
0.0646115
0.0402934
0.0406737
0.0583111
0.038352
0.0546675
0.0353835
0.0404956
0.044532
0.0504522
0.0501948
0.0607821
0.0441591
0.0539142
0.0434507
0.0476671
0.0580745
0.0354399
0.0391456
0.0398236
0.0599522
0.0502675
0.0360265
0.0382525
0.0369012
0.0531461
0.0396044
0.0540403
0.0607463
0.0351392
0.051812
0.0605069
0.0571186
0.0360444
0.059993
0.051091
0.0392462
0.0370485
0.0444853
0.0578889
0.0555082
0.0577223
0.0510618
0.0533587
0.0361435
0.0362272
0.0543494
0.0547609
0.0367991
0.0428599
0.0555324
0.0477828
0.0448433
0.0486494
0.0373311
0.0645102
0.038311
0.0362501
0.0483636
0.0508201
0.0354305
0.0603483
0.0464226
0.040907
0.0497804
0.0414982
0.0623453
0.064812
0.041343
0.056281
0.0598237
0.0498809
0.0587667
0.0448687
0.06161
0.0436182
0.0485191
0.0547087
0.0418401
0.0644532
0.0553778
0.0518921
0.0450313
0.0399499
0.0380431
0.0462955
0.0626288
0.05989
0.0374857
0.0457095
0.0397466
0.0377531
0.0625892
0.0455562
0.0462781
0.0433458
0.0578465
0.0479483
0.0554647
0.0471051
0.0626074
0.0476098
0.0595066
0.0499481
0.0371844
0.0413372
0.048287
0.0480172
0.0579286
0.0394732
0.0541641
0.0422053
0.0375397
0.0534248
0.0573302
0.0400379
0.0482322
0.051946
0.0600809
0.0558994
0.0467829
0.0400179
0.0563609
0.0443173
0.0535691
0.0396153
0.0402264
0.0364273
0.0365014
0.0546571
0.0496582
0.049276
0.037982
0.0435432
0.0448695
0.0574718
0.038733
0.0420079
0.0541928
0.0573582
0.0587931
0.0517368
0.0439424
0.0424239
0.0441916
0.0368554
0.0640529
0.0463796
0.039702
0.0504306
0.0515636
0.0541926
0.049484
0.0419876
0.0558557
0.0581739
0.036898
0.0514699
0.0532786
0.0399007
0.0352865
0.0624566
0.0539253
0.0499357
0.0578668
0.0353515
0.0449415
0.042349
0.0434531
0.0516366
0.0423002
0.0428757
0.0363635
0.0478054
0.0576555
0.0491322
0.0544153
0.0438054
0.0617022
0.0582626
0.0518202
0.059958
0.0432753
0.0546626
0.0490795
0.0512952
0.0503002
0.0533704
0.0494833
0.0517088
0.0387899
0.0632218
0.0428935
0.0587365
0.0355769
0.0391806
0.0403366
0.046987
0.0594263
0.0557872
0.0573093
0.0352117
0.0386007
0.0644064
0.0417724
0.0404211
0.0487187
0.0542829
0.0649996
0.0355756
0.0562408
0.0480852
0.0394692
0.0515093
0.0392884
0.0621205
0.0364211
0.0600419
0.0428993
0.0403343
0.0375804
0.0397961
0.0362896
0.0630735
0.0358552
0.0353114
0.0550702
0.0536376
0.0493927
0.0547702
0.0384176
0.0559317
0.0528439
0.0478882
0.0357594
0.047045
0.0616651
0.0555339
0.0541707
0.0451883
0.0455774
0.0647899
0.0409544
0.037558
0.0351809
0.0568041
0.0571877
0.0512304
0.0561507
0.0429444
0.0352189
0.0355246
0.0451298
0.0460165
0.0633605
0.0571037
0.0645095
0.047712
0.0372617
0.0372394
0.0452023
0.0567061
0.0461851
0.0372877
0.0498733
0.0574892
0.0458323
0.0607337
0.060134
0.0475431
0.0609094
0.0356109
0.0445144
0.0640174
0.0380311
0.0647097
0.0520804
0.0515778
0.0644056
0.0407249
0.0649439
0.0564847
0.0544126
0.0502331
0.042709
0.0482107
0.0489141
0.0495953
0.0598288
0.0412787
0.0591566
0.0601282
0.0563079
0.044325
0.0438696
0.0583601
0.0463268
0.0485653
0.0483299
0.0427
0.0605343
0.0574834
0.0464908
0.035834
0.055934
0.0392625
0.0398953
0.0440272
0.053854
0.0392354
0.0446101
0.0472776
0.0362128
0.0520288
0.0361933
0.0415069
0.0605628
0.0431131
0.0646993
0.0526171
0.0455406
0.037731
0.0462048
0.0455122
0.0405922
0.0457172
0.0392066
0.0426084
0.0498786
0.0635551
0.0614671
0.0528239
0.049598
0.052798
0.04629
0.0550199
0.0562498
0.0452328
0.0381093
0.0421518
0.0455636
0.0468096
0.0509238
0.0616264
0.0559346
0.0354609
0.0628637
0.0423851
0.0631911
0.0377929
0.056533
0.0548092
0.0430139
0.0637168
0.0490237
0.0399252
0.047882
0.0627311
0.0424851
0.0493272
0.0561135
0.0515863
0.046192
0.0506394
0.0646872
0.038585
0.0410288
0.0435133
0.0391508
0.0515185
0.0385993
0.0574582
0.0478291
0.0393727
0.0403442
0.0457202
0.0394795
0.0387253
0.0393338
0.0466379
0.0578395
0.0434881
0.0629111
0.0577367
0.0555436
0.0351435
0.0459782
0.0496167
0.0459834
0.046505
0.0592168
0.0559893
0.0620258
0.0447961
0.0389248
0.0591273
0.0510264
0.05198
0.0429729
0.0472351
0.0494615
0.0510688
0.0607025
0.0587553
0.0533978
0.0552899
0.0479961
0.063511
0.0612407
0.0608924
0.0400288
0.0384008
0.0514071
0.0431395
0.0418251
0.0594724
0.0372949
0.0410234
0.0607744
0.0498091
0.0461643
0.0483427
0.0633955
0.0528914
0.0531032
0.0461416
0.0400778
0.0360316
0.0522927
0.0478041
0.0488149
0.0631466
0.0555955
0.0522339
0.0609144
0.0594404
0.0520739
0.052864
0.0649313
0.0605243
0.0631413
0.0607821
0.0435275
0.0513401
0.0531985
0.0620781
0.0541143
0.0534327
0.044422
0.0490308
0.0385929
0.0528831
0.039343
0.0600629
0.0629109
0.0440336
0.0353516
0.0479422
0.0594819
0.0468554
0.0350793
0.0429384
0.0569886
0.0526356
0.0609866
0.0612391
0.05247
0.0556911
0.0432579
0.0457336
0.0640122
0.0411134
0.0485664
0.0358484
0.0578405
0.0372848
0.0354537
0.0506901
0.036452
0.0574232
0.0402162
0.0443197
0.0632066
0.0418422
0.0559039
0.0399233
0.0586256
0.0630841
0.0565859
0.0458441
0.054829
0.0557659
0.0495119
0.046036
0.0570657
0.0358146
0.0646115
0.0402934
0.0406737
0.0583111
0.038352
0.0546675
0.0353835
0.0404956
0.044532
0.0504522
0.0501948
0.0607821
0.0441591
0.0539142
0.0434507
0.0476671
0.0580745
0.0354399
0.0391456
0.0398236
0.0599522
0.0502675
0.0360265
0.0382525
0.0369012
0.0531461
0.0396044
0.0540403
0.0607463
0.0351392
0.051812
0.0605069
0.0571186
0.0360444
0.059993
0.051091
0.0392462
0.0370485
0.0444853
0.0578889
0.0555082
0.0577223
0.0510618
0.0533587
0.0361435
0.0362272
0.0543494
0.0547609
0.0367991
0.0428599
0.0555324
0.0477828
0.0448433
0.0486494
0.0373311
0.0645102
0.038311
0.0362501
0.0483636
0.0508201
0.0354305
0.0603483
0.0464226
0.040907
0.0497804
0.0414982
0.0623453
0.064812
0.041343
0.056281
0.0598237
0.0498809
0.0587667
0.0448687
0.06161
0.0436182
0.0485191
0.0547087
0.0418401
0.0644532
0.0553778
0.0518921
0.0450313
0.0399499
0.0380431
0.0462955
0.0626288
0.05989
0.0374857
0.0457095
0.0397466
0.0377531
0.0625892
0.0455562
0.0462781
0.0433458
0.0578465
0.0479483
0.0554647
0.0471051
0.0626074
0.0476098
0.0595066
0.0499481
0.0371844
0.0413372
0.048287
0.0480172
0.0579286
0.0394732
0.0541641
0.0422053
0.0375397
0.0534248
0.0573302
0.0400379
0.0482322
0.051946
0.0600809
0.0558994
0.0467829
0.0400179
0.0563609
0.0443173
0.0535691
0.0396153
0.0402264
0.0364273
0.0365014
0.0546571
0.0496582
0.049276
0.037982
0.0435432
0.0448695
0.0574718
0.038733
0.0420079
0.0541928
0.0573582
0.0587931
0.0517368
0.0439424
0.0424239
0.0441916
0.0368554
0.0640529
0.0463796
0.039702
0.0504306
0.0515636
0.0541926
0.049484
0.0419876
0.0558557
0.0581739
0.036898
0.0514699
0.0532786
0.0399007
0.0352865
0.0624566
0.0539253
0.0499357
0.0578668
0.0353515
0.0449415
0.042349
0.0434531
0.0516366
0.0423002
0.0428757
0.0363635
0.0478054
0.0576555
0.0491322
0.0544153
0.0438054
0.0617022
0.0582626
0.0518202
0.059958
0.0432753
0.0546626
0.0490795
0.0512952
0.0503002
0.0533704
0.0494833
0.0517088
0.0387899
0.0632218
0.0428935
0.0587365
0.0355769
0.0391806
0.0403366
0.046987
0.0594263
0.0557872
0.0573093
0.0352117
0.0386007
0.0644064
0.0417724
0.0404211
0.0487187
0.0542829
0.0649996
0.0355756
0.0562408
0.0480852
0.0394692
0.0515093
0.0392884
0.0621205
0.0364211
0.0600419
0.0428993
0.0403343
0.0375804
0.0397961
0.0362896
0.0630735
0.0358552
0.0353114
0.0550702
0.0536376
0.0493927
0.0547702
0.0384176
0.0559317
0.0528439
0.0478882
0.0357594
0.047045
0.0616651
0.0555339
0.0541707
0.0451883
0.0455774
0.0647899
0.0409544
0.037558
0.0351809
0.0568041
0.0571877
0.0512304
0.0561507
0.0429444
0.0352189
0.0355246
0.0451298
0.0460165
0.0633605
0.0571037
0.0645095
0.047712
0.0372617
0.0372394
0.0452023
0.0567061
0.0461851
0.0372877
0.0498733
0.0574892
0.0458323
0.0607337
0.060134
0.0475431
0.0609094
0.0356109
0.0445144
0.0640174
0.0380311
0.0647097
0.0520804
0.0515778
0.0644056
0.0407249
0.0649439
0.0564847
0.0544126
0.0502331
0.042709
0.0482107
0.0489141
0.0495953
0.0598288
0.0412787
0.0591566
0.0601282
0.0563079
0.044325
0.0438696
0.0583601
0.0463268
0.0485653
0.0483299
0.0427
0.0605343
0.0574834
0.0464908
0.035834

SCALARS dist double 1
LOOKUP_TABLE default
1.1926
1.04441
0.624988
0.691792
0.684416
0.794315
0.790393
0.821004
0.871491
1.04123
0.734135
1.14872
0.545524
0.785937
0.641305
0.696531
0.98195
0.719204
0.682266
0.750424
0.618957
0.453201
0.38351
0.903814
0.669827
0.593653
0.960721
0.474277
0.610934
0.452144
0.944818
0.871005
0.971992
0.334437
0.997846
0.799103
0.827596
1.01088
0.734396
0.793726
0.527257
0.768951
0.841583
0.867222
0.65064
0.779002
0.727172
0.825984
0.805918
0.575949
0.909918
0.230479
0.717276
0.654137
0.72288
0.844219
0.277311
0.688315
1.02527
0.693592
0.673681
0.807796
0.720367
1.26779
0.856006
0.619395
0.753111
0.455586
0.734942
0.43581
0.799295
0.391388
0.675514
0.721331
0.819897
0.82673
0.539999
0.540826
0.895009
0.811497
0.63418
0.411936
0.422268
0.813864
0.58635
0.248423
0.371403
0.650496
0.572428
0.221261
0.585677
0.816777
0.168372
0.81962
0.691609
0.369627
0.88408
0.540693
0.729482
0.626887
1.17578
1.04819
0.973638
0.558836
0.621023
0.749104
0.548563
0.716523
0.570561
1.08857
0.416985
0.859334
0.620034
0.671758
0.662336
0.533046
0.766864
0.313561
1.03977
0.876127
0.469424
0.84415
1.10986
0.746123
0.521094
0.859897
0.853486
1.04931
0.658993
0.765102
0.785925
0.576845
0.669281
0.703191
0.357668
0.748241
0.85227
0.503316
0.981091
0.925216
0.956923
0.982662
0.907137
0.59259
0.421238
0.275562
0.703321
0.914126
1.07334
0.479333
0.550414
1.01486
0.9833
0.578247
0.814078
1.00792
0.578204
0.719311
0.772151
0.531351
0.343477
0.653595
0.889003
0.901453
0.429625
0.737112
0.832591
0.707962
0.806731
0.63665
0.743375
0.609939
0.651066
0.644124
0.420056
0.718636
0.916932
0.408087
0.486682
0.659223
0.839437
0.708624
0.516742
0.421666
0.630421
0.476052
0.416747
0.642252
0.603731
0.455104
0.860923
0.918237
0.423064
0.764395
0.64746
0.544504
0.727147
0.647196
0.900075
0.518584
0.160012
0.976619
0.792568
0.561576
0.519337
1.03268
0.26926
0.76346
0.536428
0.779461
0.820459
0.869176
0.827711
0.749082
0.621789
0.396908
0.409906
0.434498
0.824763
0.854431
0.570249
0.847884
1.02276
0.591417
0.686038
0.695374
1.06797
0.545541
0.859413
0.805337
1.01813
0.742728
0.986956
0.658138
0.771426
0.720934
0.491073
1.05361
0.484113
0.849037
0.709613
0.867072
0.767199
0.926371
0.829635
0.954476
0.702489
0.549135
0.991116
0.54809
0.726187
0.6795
0.776581
0.820099
0.565665
0.691568
0.854092
0.767264
0.877745
0.87927
0.662044
0.924656
0.594394
0.786705
0.962864
0.550171
0.893331
1.01513
0.746156
0.832363
0.732041
0.0723095
0.711523
0.770997
0.751042
0.220823
0.425377
0.750836
0.75768
0.665733
0.74283
0.640566
0.447211
0.947761
0.898342
0.489653
0.527378
1.04216
0.785594
0.774065
0.874251
0.441481
0.783743
0.832497
0.868216
0.654086
0.838378
0.872145
0.371361
0.778805
0.689022
0.867953
0.788613
0.575786
0.747621
0.926803
0.477357
0.286261
0.994979
0.7321
0.348272
0.820361
0.908769
0.827092
0.872472
0.72525
0.808308
0.798351
0.913054
0.967854
0.910384
0.642804
0.648714
0.611582
0.806881
0.999974
0.8937
0.920015
0.82316
0.606223
0.634702
0.975476
0.776355
0.94031
0.525324
0.212913
0.559562
0.962075
0.675667
0.935589
1.15562
0.70328
0.843323
0.756208
0.800444
0.792743
1.1182
0.735928
0.678052
0.764371
0.92611
0.541923
0.576478
1.05748
0.52864
0.176199
0.76107
0.743397
0.642603
1.04623
0.983881
0.677034
0.942454
0.814535
0.565665
0.835107
0.927705
0.466165
0.477974
0.958077
0.694107
0.636403
0.290244
0.784834
0.782432
1.01088
1.00121
0.97147
0.682734
0.74891
1.11026
0.496048
0.588462
0.619076
0.90025
0.756848
1.09902
0.834324
1.1006
0.472181
0.357412
0.497439
0.889216
0.596801
0.95766
0.860659
0.671356
0.822984
0.339706
0.654952
0.928012
0.947932
0.939913
0.731994
0.939742
0.875011
0.392677
0.749816
1.22091
0.616935
0.93735
0.393251
0.745486
0.772972
0.804841
0.772163
0.578873
0.6435
0.735211
0.507371
0.343404
0.94327
0.90199
0.924568
1.0363
0.940866
0.610232
0.829097
0.52427
0.739173
1.07105
0.926172
0.735357
0.663378
0.722315
0.387137
0.479848
0.231098
0.992331
0.765566
0.36276
0.957768
0.521027
0.854943
1.13984
0.561925
0.846167
0.491546
0.956607
0.677225
0.854306
0.869756
0.639195
0.825531
0.454363
0.708847
0.597373
0.878393
0.740791
0.774388
0.773995
0.773116
1.07804
0.801222
0.46228
0.766511
1.15899
0.637673
0.308224
0.443508
0.614206
0.432042
1.01658
0.940872
0.348749
0.726036
0.74031
0.828069
0.575616
0.366853
0.719979
0.689924
0.859574
0.974015
0.252135
1.00239
0.451765
0.863049
0.249247
0.909925
0.684928
0.810288
0.245858
0.710986
0.555294
0.815434
1.7336
1.63504
1.16375
1.3642
1.31377
1.46793
1.32997
1.46096
1.5672
1.64829
1.30148
1.64244
0.979308
1.36206
1.33374
1.27717
1.53292
1.1461
1.41506
1.36062
1.18649
1.19481
0.928929
1.49109
1.20883
1.06345
1.46091
0.995183
1.1143
0.915408
1.34578
1.22898
1.55196
1.04723
1.55537
1.28263
1.41161
1.28064
1.18409
1.23045
0.941266
1.39314
1.36766
1.14439
1.09878
1.35725
1.25495
1.4044
1.21981
1.18394
1.39613
0.88945
1.39105
1.37702
1.42903
1.52632
0.853921
1.07069
1.56943
1.15608
1.09324
1.43561
1.32426
1.80639
1.488
0.969075
1.24222
0.93624
1.39256
1.08703
1.46718
0.902295
1.01003
1.38939
1.36803
1.34343
1.15829
1.13117
1.48407
1.30685
0.985717
1.0999
0.965172
1.13415
0.987856
0.878003
0.957157
1.06499
1.05198
0.82576
1.1247
1.24601
0.803789
1.14764
1.28011
1.10722
1.2243
0.967962
1.22598
1.13712
1.72557
1.64523
1.60123
1.2225
1.17895
1.15497
1.18163
1.31905
1.25653
1.67795
1.02165
1.52574
1.18949
1.22739
1.1718
1.21853
1.35921
0.939072
1.62666
1.43583
1.1533
1.43652
1.66642
1.34304
1.25664
1.47782
1.53889
1.61971
1.17926
1.42561
1.46562
1.06447
1.29303
1.03681
1.02679
1.14133
1.33637
1.01651
1.64284
1.50694
1.51329
1.30754
1.37601
0.980897
0.893519
1.01116
1.04828
1.46548
1.45997
1.06516
1.25222
1.48372
1.3983
1.28764
1.2505
1.38389
1.26157
1.45301
1.14495
1.08713
0.89337
1.14324
1.32821
1.32453
1.16378
1.07018
1.39586
1.4181
1.43574
1.33622
1.46363
1.34481
1.01888
1.38265
1.11459
1.37726
1.46254
1.1273
0.921144
1.27473
1.48581
1.21832
1.23177
1.06268
1.30767
0.983832
1.13002
1.14001
1.21439
1.0083
1.38905
1.5516
1.0165
1.15823
1.31179
1.24966
1.31752
1.24145
1.53703
1.13116
0.828651
1.57932
1.37027
0.954554
1.15841
1.54105
0.965341
1.3251
1.02276
1.29054
1.16407
1.45536
1.5402
1.34855
1.36496
1.1399
0.966547
1.08518
1.34119
1.48001
1.29871
1.15701
1.49284
1.17301
1.27244
1.21887
1.62406
1.05974
1.12969
1.46794
1.65216
1.1079
1.5098
1.24313
1.39376
1.41282
1.1042
1.66357
1.03997
1.39871
1.05432
1.38883
1.26648
1.56204
1.23948
1.40916
1.33402
1.19618
1.61363
1.16104
1.19512
1.32965
1.16665
1.4673
1.23263
1.32081
1.48393
1.41101
1.526
1.55479
1.33889
1.42729
1.24016
1.34629
1.56333
1.04918
1.55227
1.59402
1.29155
1.44849
1.41123
0.748212
1.275
1.39296
1.20117
0.961547
1.00451
1.12019
1.31228
1.03997
1.22441
1.32357
0.97363
1.51852
1.52978
0.964895
1.18638
1.63236
1.48312
1.28833
1.47774
1.15209
1.51173
1.30069
1.24596
1.07316
1.31608
1.39457
0.982827
1.43186
1.41125
1.48244
1.39834
1.30953
1.48095
1.51242
1.14295
0.930621
1.47779
1.16643
0.841419
1.52874
1.39433
1.24208
1.47174
1.11928
1.49921
1.47156
1.33909
1.55634
1.54605
1.35097
1.29945
1.33402
1.32269
1.41471
1.45488
1.31017
1.14134
1.29765
1.24563
1.56843
1.25679
1.42469
1.10061
0.891093
1.15251
1.57514
1.32013
1.50318
1.61758
1.05957
1.40682
1.30692
1.13287
1.20093
1.63888
1.20145
1.23655
1.27297
1.20378
1.22729
1.11974
1.57406
1.07747
0.882481
1.40772
1.48207
1.30446
1.56188
1.60955
1.37617
1.31023
1.25131
0.919386
1.3685
1.22203
0.959452
1.08939
1.40621
1.14088
0.996667
0.950216
1.50596
1.21619
1.59797
1.32344
1.5138
1.08683
1.27105
1.69734
1.0609
1.05836
1.01514
1.54129
1.28543
1.58065
1.1937
1.66092
1.10635
1.05054
1.19372
1.55043
1.31185
1.55747
1.44805
1.28795
1.44101
1.07035
1.21799
1.4926
1.52126
1.5381
1.36282
1.55767
1.53369
0.999265
1.44337
1.73855
1.27222
1.45669
0.875386
1.4534
1.24569
1.25455
1.32754
1.02953
1.07231
1.07439
1.0806
0.954549
1.50369
1.51798
1.57285
1.59978
1.46161
1.06142
1.42288
0.956587
1.28145
1.67599
1.36691
1.20604
1.08207
1.37119
0.898876
1.18237
0.793972
1.60013
1.13961
1.03037
1.29622
1.02894
1.4034
1.66237
1.10307
1.31252
1.21823
1.57905
1.36559
1.21729
1.54104
1.12893
1.50982
1.13365
1.13264
1.14188
1.24672
1.34486
1.38148
1.14635
1.13605
1.55178
1.27308
0.877681
1.45241
1.64334
1.20456
0.890018
1.06588
1.23554
0.880929
1.62928
1.55485
0.816689
1.37312
1.33245
1.22664
0.987023
0.921288
1.22682
1.1655
1.32854
1.36431
0.956952
1.568
1.12951
1.36859
0.876622
1.51616
1.22902
1.4652
0.964291
1.42531
1.26349
1.34591
