# vtk DataFile Version 3.0.
comment
ASCII

DATASET POLYDATA
POINTS 12346 double
0.0442173 0.410821 0.265861
0.064947 0.24337 0.719314
0.177184 0.623754 0.384519
0.119122 0.531291 0.481407
0.0953236 0.98869 0.686757
0.0648746 0.134515 0.12637
0.485115 0.111877 0.598765
0.330393 0.297181 0.390089
0.0981237 0.182348 0.13551
0.0731361 0.997038 0.643511
0.551809 0.685029 0.562097
0.238249 0.421994 0.52303
0.0741786 1.04244 0.68339
0.101808 0.454801 0.452595
0.139656 0.0450934 0.230226
0.379378 0.615925 0.692213
0.279115 0.199453 0.157281
0.0463836 0.266171 0.433558
0.0650806 0.973076 0.719305
0.288125 0.0543338 0.52203
0.118439 0.3772 0.524591
0.132363 0.0759608 0.183865
0.124723 0.0806033 0.121496
0.0739083 0.312968 0.684053
0.0948467 0.259392 0.686614
0.105952 0.633621 0.699088
0.0720206 0.997012 1.3708
0.0738636 1.04254 1.41065
0.0532298 0.524041 0.376204
0.304719 0.142165 0.120879
0.065189 0.288186 0.301667
0.0520635 0.191101 0.359673
0.064714 0.973224 -0.00826272
0.10547 0.251855 0.316993
0.0703179 0.267209 1.37097
0.0412427 0.395135 0.617486
0.603407 0.1047 0.0662719
0.117008 0.682437 0.221814
0.218746 0.346983 0.621488
0.0947302 0.544048 0.277403
0.0798623 0.524768 0.236161
0.125186 0.233614 0.456182
0.0598835 0.468354 0.550119
0.0973635 0.408922 0.236401
0.115975 0.47701 0.298746
0.0977621 0.46189 0.251614
0.100751 0.371797 0.32982
0.612163 0.703675 0.580119
0.0777896 0.0862049 0.370766
0.0845819 0.175626 0.400413
0.124135 0.263772 0.57616
0.60527 0.682231 0.147517
0.0409865 0.360571 0.405454
0.050285 0.31604 0.406877
0.169111 0.458814 0.538145
0.141762 0.189901 0.450543
0.263215 0.57868 0.619721
0.618477 0.401602 0.301117
0.0731859 0.312556 1.4109
0.063563 0.24374 -0.00796634
0.106992 0.361991 0.0877834
0.154506 0.29676 0.0535982
0.610222 0.141821 0.437591
0.45727 0.442649 0.357629
0.250428 0.431038 0.264532
0.0924923 0.396886 0.648239
0.0804083 1.32042 1.35256
0.457107 0.443016 0.43659
0.159133 0.670896 0.156371
0.154571 0.5979 0.413006
0.162969 0.660437 0.463331
0.171113 0.675028 0.410111
0.193406 0.629757 0.471434
0.174233 0.281111 0.194676
0.0709013 1.38648 1.33331
0.361793 0.138589 0.437973
0.237429 0.522774 0.419375
0.0966651 0.115948 0.497578
0.066392 1.33946 1.40213
0.144019 0.0399352 0.602616
0.164209 0.0965265 0.613844
0.524722 0.208476 0.347134
0.59416 0.290989 0.302634
0.16262 0.637714 0.70623
0.154896 0.657559 0.627701
0.0800396 1.32047 0.625339
0.0703785 1.38636 0.605854
0.667309 0.33259 0.0720243
0.13463 0.0489473 0.327532
0.0659835 1.33929 0.674937
0.145681 0.596938 0.601858
0.166356 0.543157 0.634208
0.689063 0.0328907 0.00126288
0.60674 0.495128 0.394056
0.0661747 0.60996 0.675389
0.576692 0.234432 0.624871
0.152802 0.646854 0.268788
0.184605 0.56134 0.238657
0.702497 0.390285 0.348407
0.0807651 0.587973 0.289222
0.432433 0.65044 0.44989
0.144668 0.380407 0.158414
0.135458 0.43838 0.175407
0.136368 0.456687 0.48801
0.530326 0.37282 -0.0418627
0.0807221 0.591152 1.35288
0.135842 0.162433 0.236637
0.162612 0.159418 0.32905
0.591942 0.669559 0.468593
0.199391 0.555102 0.680659
0.149695 0.193854 0.399002
0.0709758 0.656714 1.33349
0.11354 0.271643 0.462464
0.126879 0.472369 0.0952872
0.110349 0.187048 0.619137
0.0664435 0.60986 1.40291
0.617066 0.4863 0.53923
0.606893 0.623585 0.554874
0.283029 0.18604 0.399657
0.131078 0.540587 0.348052
0.149844 0.494165 0.337733
0.190992 0.171569 0.42914
0.17335 0.520368 0.273417
0.351633 0.458115 0.43309
0.175352 0.142016 0.0747743
0.690986 0.286433 0.252786
0.214386 0.119192 0.112215
0.0851821 0.176083 1.12772
0.356415 0.528993 0.461518
0.197633 0.520284 0.609274
0.212364 0.454574 0.56489
0.330077 0.626934 0.557533
0.470951 0.183434 0.434085
0.267152 0.424187 0.411078
0.0774667 0.0863599 1.09822
0.547697 0.270968 0.195528
0.195105 0.707237 0.267303
0.629096 0.233937 0.0938319
0.0679428 0.140455 1.15772
0.569865 0.460084 0.41763
0.633016 0.402188 0.441384
0.732587 0.034238 0.403891
0.167752 0.551349 0.427245
0.405633 0.602863 0.495322
0.587414 0.523034 0.531121
0.143894 0.196413 0.288882
0.510419 0.657014 0.127181
0.144654 0.478043 0.424899
0.1629 0.514862 0.462453
0.204398 0.369549 0.0262025
0.493763 0.514251 0.577463
0.133999 0.246013 0.185188
0.200514 0.16849 0.156739
0.664152 0.603753 0.490541
0.591059 0.369395 0.323396
0.640918 0.116885 0.375974
0.41825 0.542455 0.653361
0.146644 0.346872 0.349787
0.141642 0.277613 0.235048
0.155438 0.276451 0.154218
0.624928 0.475583 0.589009
0.208495 0.0860424 0.548168
0.175708 0.36819 0.0714966
0.0597608 0.693048 0.232043
0.23293 0.311491 0.109783
0.0170833 0.361331 0.14788
0.339267 0.685953 0.565973
0.189407 0.0223317 0.621934
0.190422 0.039239 0.54072
0.0649234 0.176361 0.596377
0.042727 0.272755 0.0570897
0.084441 0.904766 0.40002
0.188903 0.698843 0.480849
0.179992 0.215116 0.331907
0.204922 0.264105 0.332059
0.41318 0.36928 0.474752
0.0775434 0.815073 0.370555
0.0670829 0.869161 0.429924
0.627574 0.567667 0.269453
0.398978 0.0531033 0.397814
0.184718 0.411521 0.360752
0.223413 0.575054 0.123088
0.213723 0.175683 0.100805
0.21355 0.222189 0.032139
0.155783 0.736393 0.421517
0.252143 0.726277 0.396485
0.196201 0.712574 0.418499
0.309471 0.231981 0.522425
0.056521 0.653592 0.232071
0.208125 0.592481 0.488768
0.0852647 0.90547 1.12686
0.179267 0.155486 0.594234
0.164153 0.181216 0.549148
0.65672 0.718604 0.398337
0.542682 0.127164 0.10856
0.077894 0.815783 1.09759
0.515775 0.43224 0.401546
0.237429 0.632746 0.721273
0.65209 0.237379 0.215201
0.200469 0.665653 0.613612
0.643252 0.669786 0.537441
0.0801143 0.591478 0.626119
0.194417 0.465973 0.240909
0.375545 0.254257 0.278477
0.565764 0.580059 0.652269
0.0678584 0.86984 1.15676
0.357001 0.574668 0.0805001
0.670886 0.218634 0.389528
0.0871068 0.48909 1.21143
0.145815 0.493549 0.0161592
0.215488 0.420731 0.612708
0.429718 0.698064 0.466914
0.00942269 0.328011 0.421029
0.179724 0.3287 0.384296
0.187338 0.278433 0.424168
0.605428 0.341941 0.447231
0.199612 0.522748 0.512221
0.0606403 0.468187 1.27718
0.525739 0.510542 0.228002
0.0559332 0.450157 1.2044
0.210987 0.708786 0.0526293
0.363692 0.100937 0.361876
0.0858926 1.21878 1.2111
0.237042 0.518155 0.630556
0.237826 0.55359 0.654833
0.637697 0.472433 0.0427838
0.0203031 0.159343 0.333853
0.622553 0.0475283 0.193477
0.0594537 1.19754 1.27603
0.286098 0.315969 0.216911
0.0201138 0.203883 0.32043
0.131282 0.480737 0.195814
0.171214 0.449875 0.207452
0.25984 0.092423 0.273547
0.0552156 1.17957 1.20366
0.228153 0.490323 0.0242357
0.321462 0.432595 0.623214
0.076676 0.366839 0.487454
0.259594 0.10734 0.6245
0.244409 0.681754 0.664533
0.626425 0.502936 0.147485
0.208441 0.26692 0.682472
0.602393 0.581781 0.498516
0.0853229 1.21868 0.483296
0.233506 0.696929 0.217403
0.616499 0.367328 0.227532
0.225168 0.0794753 0.478111
0.629417 0.461678 0.338754
0.673162 0.476987 0.155184
0.590224 0.518135 0.464058
0.220495 0.407256 0.318598
0.135345 0.349105 0.64304
0.0590101 1.19763 0.548981
0.423822 0.665113 0.553833
0.246116 0.245303 0.671792
0.60641 0.330246 0.307212
0.220512 0.124147 0.462321
0.237036 0.172314 0.4589
0.214397 0.187694 0.541672
0.217635 0.0846806 0.408968
0.0544039 1.1795 0.476401
0.365295 0.504271 0.0425486
0.0671147 0.139954 0.430171
0.226869 0.491564 0.463753
0.241741 0.578217 0.433018
0.250741 0.527674 0.495551
0.105427 0.98155 1.04447
0.266921 0.547412 0.549532
0.280437 0.593413 0.544391
0.22047 0.308929 0.353481
0.247707 0.297964 0.39092
0.233047 0.345818 0.386731
0.24056 0.338979 0.309688
0.246425 0.390657 0.356888
0.267539 0.479575 0.498028
0.142777 0.259266 0.517762
0.612867 0.148893 0.393725
0.562363 0.305157 0.153665
0.194593 0.265302 0.159024
0.552815 0.44611 0.125539
0.0119598 0.0889194 0.61764
0.62442 0.488546 0.0981595
0.567872 0.404294 0.387291
0.253435 0.644109 0.227641
0.257016 0.67871 0.309885
0.279883 0.594008 0.235929
0.552726 0.352938 0.570538
0.0858427 0.955138 1.11338
0.277811 0.295464 0.137944
0.0825409 1.02849 1.07711
0.254973 0.292662 0.185832
0.415293 0.281803 0.412738
0.252793 0.627269 0.13203
0.0546825 0.566768 0.697725
0.542512 0.678159 0.384905
0.475471 0.513745 0.126734
0.0887035 0.292237 0.574816
0.266196 0.0990524 0.136744
0.615986 0.510497 0.196806
0.260563 0.662519 0.429043
0.0694413 1.0042 1.12067
0.119278 0.429075 0.556303
0.284781 0.686288 0.0940712
0.605881 0.521848 0.329062
0.065451 1.01776 1.02847
0.295095 0.716777 0.495517
0.321107 0.0114301 0.651279
0.225509 0.327672 0.462488
0.0522464 0.921032 1.08654
0.294212 0.272903 0.172932
0.376294 0.0636638 0.545811
0.315685 0.396415 0.170785
0.299445 0.453137 0.251283
0.105642 0.251998 1.04442
0.608322 0.652694 0.201292
0.283561 0.248496 0.13758
0.114468 0.569812 0.567199
0.278624 0.0760251 0.468182
0.552523 0.290353 0.303364
0.117801 0.679582 0.465127
0.284328 0.392463 0.653994
0.567835 0.478078 0.462865
0.304124 0.169444 0.221748
0.324053 0.171389 0.267484
0.695279 0.221698 0.110394
0.50035 0.643749 0.486035
0.311288 0.405103 0.0307598
0.323939 0.346272 0.0372618
0.0860464 0.225651 1.1139
0.0828117 0.298887 1.07766
0.30958 0.407659 0.118519
0.447244 0.144532 0.660905
0.583115 0.176976 0.422321
0.0656925 0.288191 1.02873
0.0522867 0.191545 1.08723
0.178622 0.510361 0.15917
0.576204 0.10019 0.528231
0.105236 0.980931 0.316637
0.281574 0.724636 0.276796
0.296745 0.753999 0.38272
0.255787 0.207423 0.0184952
0.275064 0.0458444 0.0776713
0.290794 0.0605581 0.19171
0.0852317 0.954318 0.386165
0.0515998 0.318962 0.22915
0.646658 0.737382 0.0832735
0.0821968 1.02749 0.349163
0.0651201 1.01716 0.301192
0.250631 0.691713 0.51561
0.0798489 0.563696 0.388069
0.0518744 0.920041 0.359249
0.320774 0.0375208 0.0432079
0.0565341 1.3831 0.95952
0.576587 0.187494 0.64932
0.308457 0.660098 0.664327
0.0308623 0.244888 0.398263
0.337784 0.0586034 0.666443
0.335603 0.0774338 0.613545
0.272511 0.460388 0.375818
0.0389309 1.33497 0.963326
0.288315 0.49962 0.34614
0.366472 0.744114 0.239445
0.170253 0.0617758 0.263879
0.536231 0.186265 0.403414
0.59016 0.342743 0.397121
0.0117127 0.362098 0.212536
0.0568326 0.653619 0.959162
0.342062 0.132514 0.30252
[...]
POINT_DATA 12346

VECTORS nn double
0.855975 0.163865 0.490362
0.338846 -0.608372 0.717682
-0.00405252 -0.224542 -0.974456
0.134563 -0.896496 -0.422122
-0.961687 0.270511 -0.044506
0.115787 -0.84903 0.515501
-0.0624969 -0.574482 -0.816128
-0.621308 -0.0288517 -0.783035
0.729113 0.0345471 0.68352
0.498657 -0.0961277 -0.861453
-0.629787 -0.476036 -0.613805
0.116973 0.218759 -0.968742
-0.519786 -0.853903 0.0259164
-0.523573 -0.82172 -0.225051
0.805642 0.449583 -0.385765
0.794443 0.591176 -0.139179
0.482983 0.800441 0.354995
-0.781841 -0.623291 -0.0152574
0.330821 -0.599834 0.72853
0.43802 0.189302 -0.878808
-0.605117 -0.782244 0.148079
-0.926581 0.0546239 -0.372107
-0.807077 -0.0170565 0.5902
-0.525052 -0.850754 0.0232007
-0.962294 0.270312 -0.0303717
0.449441 0.830605 -0.328783
0.490365 -0.104015 -0.865288
-0.527898 -0.848787 0.0297556
0.470346 -0.878412 -0.0846646
-0.935101 0.208687 0.28642
-0.21496 -0.678876 0.702083
0.00671383 0.96069 -0.277543
-0.337888 0.604109 -0.721723
-0.894265 -0.0652043 0.442763
0.482639 -0.109518 -0.868945
0.621137 0.763406 -0.1772
0.905176 -0.393567 0.160501
0.786673 0.3159 -0.530428
-0.928017 -0.128016 -0.349852
-0.767509 0.415644 -0.488027
0.461568 -0.811138 -0.359181
-0.300514 -0.565633 -0.767952
-0.331849 0.371822 -0.866963
0.0287757 -0.195392 -0.980303
0.338999 0.939048 0.0571727
0.0353972 0.685764 -0.726963
-0.0852194 0.813924 -0.574687
0.991354 0.0254902 -0.128717
-0.459737 0.884182 0.0828507
0.57784 0.68863 0.438051
-0.724691 -0.0297841 0.68843
-0.636901 -0.0219961 -0.770632
-0.461723 -0.70478 -0.538607
-0.698583 0.425084 -0.575574
0.390699 0.82182 0.414688
0.660387 -0.380145 0.647595
-0.307897 0.0471795 -0.950249
0.449153 0.704721 0.549209
-0.541689 -0.839999 0.0312208
-0.341478 0.602779 -0.721145
0.165703 0.979521 0.114374
0.907227 -0.0375973 -0.418957
0.571255 -0.519171 -0.635711
0.353203 -0.214419 0.910644
-0.384453 0.244413 0.890201
-0.173625 0.736222 -0.654089
0.707932 -0.688692 -0.156639
0.35669 -0.222712 -0.907288
-0.0868435 0.555488 0.826977
0.499984 0.791814 0.350779
-0.315387 0.578934 0.751908
0.137202 -0.899749 0.41428
0.351996 -0.0932201 0.931348
-0.956059 0.281801 -0.0808682
0.513663 0.659179 -0.549211
-0.695365 -0.712823 -0.0913782
0.499291 -0.384976 -0.77621
-0.431808 0.633934 -0.641615
-0.421981 0.300144 -0.85548
0.558459 -0.649367 -0.516184
-0.897148 -0.293279 0.330323
0.930404 -0.265249 0.252965
0.528805 0.30759 0.791046
-0.469304 0.763242 -0.444089
-0.344216 0.441782 0.828459
0.707747 -0.688448 -0.158538
0.510658 0.655781 -0.556039
0.636312 -0.504175 0.583878
0.638654 0.162948 -0.752043
-0.421409 0.304858 -0.854094
-0.531907 -0.790446 0.30376
-0.923116 0.22868 -0.309131
0.570977 -0.776142 0.267562
-0.397368 -0.0583745 0.915801
-0.426082 0.30952 -0.850089
-0.644182 -0.759936 -0.0867563
-0.0356789 -0.800971 -0.597639
-0.623617 0.780703 -0.0400629
-0.401869 -0.710475 -0.57769
-0.479971 -0.486461 -0.730057
0.86936 -0.449659 -0.204989
-0.83489 0.325294 0.444008
-0.666768 -0.733163 0.133764
-0.253258 0.780563 -0.571474
-0.525055 0.278596 0.804177
0.708871 -0.685762 -0.165023
0.128569 0.351837 -0.92719
0.610116 0.297877 0.734185
0.491813 -0.630535 0.600454
0.10428 -0.525844 -0.844164
0.832484 -0.29457 -0.469254
0.509537 0.65261 -0.560778
-0.628496 0.506214 -0.590542
-0.870884 -0.0252278 0.490841
-0.82591 -0.119736 0.550941
-0.417317 0.303763 -0.85649
0.668849 -0.249704 -0.700206
0.223284 0.197296 -0.954578
0.271253 0.234841 -0.933419
0.0336199 -0.345558 -0.937795
-0.344905 0.5909 -0.729299
0.122018 0.0889214 -0.988537
-0.820158 0.0624821 0.568715
0.48963 -0.254018 -0.834108
-0.0195922 -0.984809 0.172532
0.88696 -0.43159 0.164411
0.657021 0.613082 0.438695
0.583207 0.688509 0.431074
-0.27485 0.131379 -0.952469
-0.147949 -0.339053 -0.929061
-0.425322 0.900542 -0.0901367
0.214469 0.332842 0.91827
-0.988272 0.020874 0.151271
-0.368435 0.18184 0.911696
-0.448724 0.889396 0.0872968
-0.300347 0.953466 0.0263362
0.726582 0.287527 -0.624024
0.543456 -0.805767 -0.23536
0.280374 0.06274 0.957838
0.499865 0.794995 0.343683
0.220375 0.579028 -0.78496
-0.0556719 -0.551176 -0.83253
0.762086 -0.132303 0.633815
-0.194528 -0.43487 -0.879231
-0.0652 -0.497816 0.864828
-0.273098 -0.961915 -0.0117443
0.139268 -0.22101 0.965277
-0.438933 0.299503 0.847134
0.849316 0.527873 -0.00358739
-0.990621 0.101811 0.0911274
-0.00666259 -0.600153 0.799857
0.158225 -0.981505 -0.107764
-0.902725 0.255617 0.346045
0.807207 -0.553398 -0.205349
0.0951828 -0.0656433 -0.993293
-0.226408 0.128808 0.965478
0.398743 0.0955953 0.912067
0.9624 0.244422 -0.118511
-0.309834 0.351744 -0.883334
-0.582728 0.374022 0.721482
-0.827232 0.46694 -0.312496
-0.0889317 -0.485384 -0.869767
-0.345136 0.132512 -0.929151
-0.757416 0.601494 -0.254021
0.558972 -0.763264 -0.324003
-0.117904 0.782707 -0.61112
0.0666088 -0.617992 0.783358
-0.324676 -0.308088 -0.894241
-0.344503 -0.637729 0.688927
0.0645717 0.089515 0.99389
0.835612 0.411501 0.363896
0.576239 0.691664 0.435373
0.890689 0.271861 -0.364369
0.310823 -0.659606 0.684331
0.71438 0.132992 0.687003
0.037295 -0.286161 0.957455
-0.456097 0.886102 0.0824599
0.271155 0.0661217 0.960262
-0.837116 -0.284872 0.466996
-0.137842 -0.909409 0.392396
0.286275 -0.905331 -0.313723
-0.661637 -0.505092 0.554182
0.667966 -0.381502 0.638966
-0.666204 -0.452724 0.592632
-0.252999 0.660712 0.706718
-0.115625 -0.164885 0.979512
0.775856 0.0534929 0.628639
-0.203482 0.100883 0.973868
0.84849 0.46406 0.254387
0.0311547 -0.876772 -0.479896
0.579897 0.688877 0.434934
-0.621999 0.782532 -0.0276048
0.305105 -0.242563 -0.920909
-0.179436 0.983088 -0.0366275
-0.254172 0.0354114 0.966511
-0.451478 0.888743 0.0793937
-0.99458 0.0253384 -0.10084
0.697158 0.685637 -0.209459
0.22635 0.480681 -0.847178
0.581653 0.606288 0.542306
-0.432272 -0.635659 -0.639593
0.710243 -0.686469 -0.155934
-0.452149 -0.891942 -0.000594053
-0.0535089 0.253359 -0.965891
-0.473438 -0.539964 0.695914
0.273951 0.0629383 0.959682
0.356083 -0.518704 -0.777272
0.275094 -0.935388 -0.222198
-0.875018 -0.0527726 0.481206
-0.571747 0.309552 -0.759791
-0.360518 0.192167 0.912742
0.812004 0.562223 0.1567
0.338525 0.120824 -0.933168
0.375139 0.568008 -0.732555
0.575825 -0.754085 0.315881
0.348045 0.662431 0.663363
-0.185168 -0.385246 0.904046
-0.331969 0.375196 -0.865462
0.276966 0.892213 -0.356715
-0.235701 0.744547 0.624575
-0.72847 0.42172 -0.539893
-0.908829 0.137698 -0.393789
-0.882163 -0.0593936 0.467184
-0.829126 0.391059 0.399528
-0.849288 -0.487611 -0.202349
-0.493259 0.857797 0.144496
0.551071 -0.402627 0.730898
-0.589719 -0.0510577 -0.805993
-0.339625 0.375421 -0.862388
0.0751168 -0.0101681 -0.997123
0.545844 0.744266 0.384867
-0.762814 0.237219 0.601533
0.152518 -0.470537 0.869099
-0.742947 0.282005 0.607044
-0.252998 0.743489 0.619044
0.730112 0.258692 -0.632467
-0.298765 0.0161216 0.95419
0.11635 -0.60292 0.789272
0.84525 -0.0960545 0.525668
-0.574455 0.183399 -0.797726
0.234346 -0.913159 -0.333501
-0.913518 -0.394624 0.0987781
0.304203 0.950585 0.0620435
-0.87511 -0.0560253 0.48067
-0.331971 0.570826 0.750968
-0.410128 -0.0245094 0.911699
-0.487324 -0.326013 0.810081
0.160386 -0.88134 -0.444428
0.793305 0.343025 0.502992
0.00399428 -0.618076 -0.786108
-0.350004 -0.829107 0.43598
0.636893 -0.167408 -0.752557
-0.334973 0.374718 -0.864511
-0.196693 -0.904242 -0.379023
0.0986226 -0.977123 -0.188428
0.209749 -0.711707 0.670432
-0.590076 0.663686 0.459709
-0.851984 -0.100488 0.513834
0.492897 0.344434 0.799011
-0.656084 -0.211198 -0.724533
-0.240723 0.745991 0.620926
-0.179148 -0.983288 -0.0324229
0.271021 0.0621155 0.960567
0.308436 -0.950858 0.0271556
-0.578466 -0.61984 0.53026
-0.740617 0.296415 -0.603013
-0.897607 -0.0596198 0.436747
-0.388249 0.724394 0.569662
-0.680501 -0.271707 0.680509
0.349344 -0.918716 0.184171
-0.289186 -0.660334 -0.693059
-0.573385 0.263453 -0.775772
-0.706406 0.384766 0.594092
-0.809903 -0.533166 -0.244523
-0.374689 -0.747801 -0.548089
0.195398 0.157518 0.967992
0.502331 -0.702634 0.503953
-0.553716 0.365196 0.748352
0.51281 0.0621569 0.856249
0.135367 -0.718211 -0.682531
-0.0324506 0.261345 0.9647
-0.27879 0.59774 -0.751654
-0.444588 0.746746 0.494683
0.0194503 -0.360896 0.932403
-0.0382898 -0.918452 -0.393674
0.406337 -0.446234 -0.797349
0.587815 0.808857 0.0149821
-0.567628 0.38646 -0.726944
-0.268125 -0.467436 -0.842385
-0.511396 -0.851738 -0.114088
0.800697 0.533108 -0.273278
-0.87318 0.299572 0.384465
-0.00811145 0.657008 0.75384
-0.678851 -0.640793 -0.358533
-0.338536 -0.486388 -0.805493
-0.216401 0.219998 0.951195
-0.0915524 0.686893 -0.720969
-0.25528 0.966844 0.00665715
0.0275694 -0.764226 0.644359
-0.249913 0.851573 0.460832
-0.29021 -0.441638 -0.848961
-0.589453 0.237248 0.772178
-0.919171 0.0807348 -0.385495
-0.418578 0.598875 -0.682746
-0.223078 -0.670977 0.707125
-0.800579 -0.0134931 -0.599076
-0.864316 -0.0443182 -0.500992
-0.719191 -0.0874589 0.689286
-0.000133845 0.961931 -0.273293
0.113921 -0.993111 -0.0274227
-0.437691 -0.116546 0.89154
0.687537 -0.324327 -0.649696
-0.420981 -0.607916 -0.673211
-0.894813 -0.0605086 0.442322
0.564644 0.690999 -0.451329
-0.374705 0.398346 -0.837208
0.059583 -0.275953 0.959323
0.698748 -0.403147 0.590951
-0.514216 0.290743 0.806877
0.684792 0.154955 0.712074
-0.45146 -0.827561 -0.333657
-0.54831 -0.356103 0.756669
0.585362 -0.451036 -0.673734
0.905559 -0.419809 0.0610172
-0.611284 -0.592623 -0.524528
0.372859 0.328247 0.867888
-0.722101 -0.671993 -0.1643
-0.924372 0.271121 -0.268382
-0.564597 0.384315 -0.730433
-0.509845 -0.852066 -0.118498
-0.797269 0.527068 -0.294213
0.861056 -0.114896 -0.495361
-0.019271 0.246799 -0.968875
-0.220837 -0.671435 0.707394
0.00544139 0.959957 -0.280094
0.322171 0.916192 -0.238324
-0.687859 0.619894 0.377599
-0.896239 -0.0681959 0.438297
0.350463 -0.190526 -0.916993
0.590292 0.274105 0.759224
0.47698 -0.850354 0.222235
-0.106064 0.0699848 -0.991893
-0.159605 -0.318244 -0.934477
-0.559525 0.381369 -0.735859
0.50748 0.0147309 0.861538
-0.81372 -0.00435109 -0.58124
-0.507821 -0.85434 -0.110552
-0.219572 -0.680088 0.699477
0.091451 -0.385606 0.91812
-0.983093 0.112856 -0.144193
0.00409875 0.959748 -0.280832
-0.89325 0.213206 -0.395786
0.844806 0.466876 0.261399
-0.642324 0.365693 -0.673564
0.563003 -0.201199 -0.80159
0.364885 0.0523982 -0.929577
-0.571745 0.78617 -0.234615
-0.531224 0.444506 0.721259
-0.253956 0.954035 0.159134
0.359449 -0.858442 0.365887
-0.593703 0.11232 0.796807
-0.243606 -0.0816556 -0.966431
-0.305978 -0.177153 0.935411
0.743101 0.0959674 -0.662262
-0.0742253 0.686143 -0.72367
0.215741 -0.798434 -0.562103
0.845917 0.465059 0.261046
0.497266 0.462312 -0.734162
-0.537327 -0.575508 -0.616499
0.177601 0.00586169 0.984085
0.298975 0.814686 -0.49689
-0.384991 0.727936 -0.567354
-0.776383 0.34543 -0.52717
0.459238 0.845524 0.272377
-0.83181 -0.447346 0.328594
0.817607 -0.242716 0.522118
0.932182 -0.243708 -0.267662
0.868987 -0.216236 -0.445088
-0.512274 0.767755 -0.384873
-0.308951 0.940185 0.143534
-0.177008 0.967534 -0.180403
0.358602 -0.854052 0.376829
0.791549 -0.418487 -0.44533
0.83369 0.539458 -0.118095
0.85317 0.456342 0.252692
0.289374 0.881185 0.373865
0.168232 -0.449209 0.877445
-0.567284 0.289426 -0.770987
0.40045 -0.10997 -0.909696
0.617513 0.76478 0.183819
0.373019 -0.856975 0.355599
-0.884454 0.000319911 -0.466627
0.0894006 -0.141142 -0.985944
0.667012 -0.2658 0.696021
-0.744918 -0.308494 0.591547
-0.0923339 -0.947898 -0.3049
-0.711017 0.580983 0.396124
0.842155 -0.23929 -0.483234
-0.160772 -0.739159 -0.654061
0.603627 -0.0110652 -0.79719
-0.130828 0.721253 0.680205
0.509359 -0.48485 -0.710967
-0.4447 -0.302208 0.843156
-0.957283 0.0234128 -0.288204
0.115667 0.20315 0.972292
-0.887191 0.000274896 -0.461402
-0.253049 0.336813 -0.906931
-0.74299 -0.299718 0.598444
-0.655682 -0.640447 0.399887
0.497638 0.275886 0.82234
0.762126 -0.637496 -0.11297
0.933599 0.29158 0.208265
-0.298989 -0.903067 -0.308344
0.43704 -0.145477 0.887599
0.536088 -0.221448 -0.814598
-0.162388 -0.735873 -0.65736
-0.145971 0.724015 0.674162
-0.532433 -0.757218 -0.378332
-0.362072 -0.678835 -0.638817
0.208713 0.46127 -0.862363
-0.885736 -0.000273667 -0.464189
-0.743042 -0.303481 0.59648
0.142937 0.47308 0.869347
-0.418985 0.748592 0.51387
0.198546 -0.540138 0.81782
0.0827402 0.395765 0.914617
0.997339 -0.0684398 -0.025126
0.380606 -0.257714 0.888101
0.656028 -0.675903 -0.335831
-0.161662 -0.739628 -0.653312
-0.133439 0.720149 0.680867
-0.684953 0.280069 -0.672607
0.846012 -0.366401 -0.387317
-0.656533 0.111133 -0.746066
-0.0387028 0.950541 0.308179
-0.493516 0.37199 0.786171
-0.6897 0.432366 -0.580839
-0.38984 0.759445 0.520834
-0.339849 0.901272 0.26872
0.755799 -0.426386 -0.496954
-0.379196 -0.924775 -0.0316405
-0.345051 -0.205665 -0.915774
0.700572 0.706293 -0.101734
0.44404 -0.855748 -0.265564
0.433315 -0.406204 0.80451
-0.533548 -0.615899 0.57965
0.678915 -0.324118 -0.658804
0.354386 0.930113 -0.0964358
-0.942357 -0.333586 -0.0261616
0.981763 0.000739475 0.190107
0.367275 0.43859 0.820212
0.498812 -0.151696 0.853332
-0.334989 -0.0225757 0.941952
0.680907 -0.692577 -0.238124
0.413675 0.760529 -0.500469
-0.159667 -0.644234 -0.747976
-0.193544 0.0760242 -0.978142
0.0130651 -0.770977 -0.636729
-0.335778 0.862001 -0.379745
-0.468784 -0.699192 -0.53979
-0.552927 -0.832197 0.0414691
0.299381 -0.86108 -0.410989
-0.889951 -0.0302554 -0.455051
-0.218562 -0.742578 -0.633095
0.872049 0.458275 -0.171801
-0.670696 0.737304 0.0809281
-0.136365 0.652782 -0.745171
0.821113 0.527064 0.219036
-0.397024 0.823964 0.404297
-0.692035 0.434572 -0.576398
-0.472884 -0.697343 -0.538603
-0.0579875 -0.998278 -0.00883261
0.296212 -0.862035 -0.411284
0.429072 0.202056 -0.880381
-0.798354 -0.233501 -0.555075
0.382347 -0.0518965 -0.92256
-0.83445 -0.529718 -0.15196
-0.265264 0.687068 0.676441
0.84707 0.0637601 0.527643
-0.796229 -0.512301 -0.321819
-0.691963 0.386551 -0.609725
0.631901 0.636241 0.442603
-0.437479 0.486285 -0.756399
-0.705246 0.41778 -0.572789
0.00193261 -0.722376 -0.691498
0.926838 0.202285 -0.316311
0.505639 0.63591 0.583051
-0.598248 -0.523046 0.60706
-0.459854 -0.709274 -0.534289
0.297537 -0.857976 -0.418747
0.277361 0.698639 -0.659526
0.431626 -0.167734 -0.88632
-0.74752 -0.591687 0.301863
-0.655583 0.225513 0.720663
0.517267 0.643986 -0.563664
-0.621487 0.103085 -0.776613
0.481672 -0.348298 0.804165
-0.84028 0.517828 -0.160575
0.0318309 0.999222 0.0232864
-0.773724 -0.633434 -0.0106314
-0.708534 0.69573 0.118065
-0.186885 0.0406859 0.981539
-0.301503 0.915617 0.265973
0.0341088 0.995919 0.0835587
0.629769 -0.111807 0.768694
0.892096 -0.25947 -0.36992
-0.789293 -0.552184 -0.268532
-0.504822 -0.855671 -0.113938
-0.79948 0.361085 -0.480052
0.440969 -0.218064 -0.870629
-0.193644 -0.801109 0.566327
0.0390327 0.8571 -0.513669
0.981617 0.0621135 -0.18047
0.258205 0.126971 0.95771
0.358101 0.0670944 -0.931269
-0.397854 0.651682 -0.645774
-0.781809 -0.62338 -0.0130982
0.226188 0.963675 -0.142018
0.355654 0.046456 -0.933462
0.247238 0.0642555 -0.966822
-0.77735 -0.628815 -0.0178678
0.48193 -0.108167 -0.869508
-0.329757 -0.875326 -0.353644
-0.0242215 0.998971 0.0383448
-0.339885 0.847821 -0.407035
0.623603 -0.118379 0.772726
0.337199 -0.850258 -0.404176
0.687314 0.550811 -0.473505
0.942179 -0.322971 0.0893787
-0.558503 -0.747157 -0.360319
0.708964 -0.651206 0.270741
-0.258686 -0.575478 0.775827
0.366199 0.0611938 -0.928522
0.438048 0.150108 0.88633
-0.700601 -0.27181 -0.659756
0.170958 0.263736 -0.949324
0.737658 0.00826432 0.675124
-0.773504 -0.0184392 -0.633523
-0.741785 0.658438 0.127337
-0.413565 -0.21632 -0.884403
-0.502704 -0.837005 0.216128
0.339732 0.919851 -0.196101
-0.543175 -0.646727 -0.535449
-0.586148 -0.652779 0.479907
0.00391944 -0.56102 -0.827793
-0.392724 -0.0737771 0.916693
-0.0814239 -0.550927 -0.830572
-0.702989 -0.275884 -0.655511
0.330251 -0.919825 -0.21179
-0.742326 0.657395 0.129553
0.285487 -0.398408 -0.871647
-0.504167 -0.840331 0.199148
-0.401436 -0.0858386 0.911856
0.783087 0.604146 -0.147591
-0.670641 -0.0751328 0.737967
-0.702186 -0.272923 -0.657607
-0.989431 0.11836 -0.0837727
-0.62438 -0.771066 -0.124928
0.297873 -0.920618 -0.252454
-0.770441 0.0653433 -0.634153
-0.742554 -0.256746 -0.618624
-0.743179 0.656506 0.12917
-0.696795 -0.00371753 -0.717261
-0.554145 0.54138 -0.632322
0.115796 0.147844 -0.982208
-0.990135 0.122432 -0.0681327
0.507031 0.838284 -0.2005
-0.40044 -0.0841217 0.912453
0.826322 0.0932799 0.555419
-0.338567 0.937817 -0.0766326
-0.709538 -0.281036 -0.6462
-0.749162 0.649437 0.130337
-0.140899 0.202406 -0.969113
0.0911098 0.00541992 0.995826
0.508161 0.8407 -0.187072
-0.745475 0.603853 0.282185
-0.393551 -0.00982598 0.91925
0.814213 0.152603 0.560151
-0.404542 -0.0948694 0.909585
-0.306805 -0.155778 -0.938938
0.226463 -0.438071 0.869947
0.60662 -0.288045 -0.740974
0.774564 0.528448 0.347554
-0.174188 0.238705 0.955342
0.241642 -0.912331 0.330547
-0.140486 0.723454 0.675927
-0.354029 -0.654475 0.668076
-0.981079 0.108265 -0.16051
0.607227 0.630689 0.483226
-0.440962 -0.762065 -0.47414
-0.900613 0.309081 -0.305558
-0.875922 -0.326925 -0.354795
0.288577 0.028172 -0.957042
0.608887 0.572172 -0.549432
0.469066 -0.879616 -0.0790679
0.198417 0.968175 -0.152536
0.491715 0.515715 -0.701608
0.75113 0.554917 -0.357591
-0.689624 -0.55891 -0.460477
0.307664 0.256811 -0.916183
0.560523 -0.0569797 0.826176
0.403146 0.0704684 0.912419
0.19291 -0.939816 0.282013
-0.195411 0.600316 0.775523
-0.378975 -0.863408 -0.333024
-0.704117 -0.70565 0.0792243
-0.372816 0.614709 0.695084
-0.623141 0.156945 0.766201
0.154523 0.00033932 -0.987989
-0.98349 0.110545 -0.143272
0.0730817 0.642245 -0.763008
0.486252 0.805479 0.338766
0.601085 -0.445135 0.66374
0.157134 0.290481 0.943891
-0.482046 -0.768402 0.42094
0.719693 0.692793 -0.0456106
-0.167039 0.76883 -0.61725
-0.731196 0.63435 0.250904
-0.0147635 0.797188 0.603551
0.247441 -0.518071 0.818765
0.472281 -0.877288 -0.0855356
-0.437026 0.707935 -0.55483
0.042458 0.133006 -0.990205
-0.382164 -0.863827 -0.328259
-0.603992 0.785144 0.136906
0.466971 0.882356 0.0581936
0.494446 0.867431 0.0555645
0.0249792 -0.999389 0.0244565
0.533663 0.672032 0.513397
-0.836971 0.0240806 -0.546717
-0.378643 0.306311 0.873386
-0.484912 -0.764497 -0.42474
0.9961 -0.0808899 0.0352436
-0.981262 0.103012 -0.162827
-0.167015 -0.581916 0.795915
-0.170304 -0.547491 0.819299
-0.870538 -0.0255231 0.49144
-0.010972 0.490742 0.871236
-0.74553 -0.167298 -0.645133
0.0611088 0.997618 0.0320091
-0.410007 0.865072 0.289042
-0.706799 -0.699049 0.108467
-0.875555 0.389202 -0.286226
-0.841255 0.383172 -0.381405
0.476939 -0.875233 -0.0806016
-0.378852 -0.863663 -0.332502
0.324366 -0.858883 0.396367
0.0936861 0.260127 0.961019
-0.351991 0.321799 0.878947
0.842765 0.0683588 0.533924
0.89474 -0.427659 -0.128643
0.994983 -0.030802 -0.0951858
-0.00121163 -0.99975 -0.0223388
0.290662 -0.725066 -0.624335
0.309728 0.945462 0.100852
-0.388318 0.809974 0.439489
-0.898985 0.416289 -0.136122
0.431648 0.287147 -0.855118
0.0143607 -0.727796 -0.685644
0.868437 0.309061 0.387683
-0.698643 -0.495957 0.515679
-0.122655 0.968994 -0.21449
-0.901155 -0.364864 -0.234079
-0.092787 0.599182 0.795218
-0.318982 -0.889222 -0.327926
0.319538 0.343539 -0.883106
0.155918 0.543584 -0.824746
0.0859348 -0.249462 0.964564
-0.859082 -0.497418 -0.120642
-0.9026 -0.329973 -0.276461
-0.192332 0.838238 0.51026
0.942023 0.284808 0.177416
-0.889876 -0.223314 -0.397808
0.746532 -0.61135 -0.262565
-0.435954 -0.387602 -0.812224
0.54269 0.83756 0.0631028
-0.73844 0.612466 0.28212
-0.787341 -0.536317 -0.304069
-0.302411 0.78954 0.534016
-0.627391 0.77867 -0.00733937
0.516882 -0.599392 -0.611197
-0.330745 0.0606126 0.941772
-0.746543 -0.297 0.595369
-0.11221 0.513337 0.850819
-0.013556 0.930563 -0.365882
-0.815689 0.226242 0.532416
-0.400954 -0.614231 0.679674
-0.25848 -0.862269 0.435523
-0.172311 -0.434327 -0.884121
0.994685 0.0553963 0.0867973
-0.708678 0.679704 0.189151
-0.931145 -0.0460109 -0.361734
-0.851194 -0.506723 -0.136753
0.143633 -0.563703 -0.813394
0.570249 -0.600071 0.561008
-0.302684 0.855052 -0.421032
0.228404 -0.225818 -0.947015