# vtk DataFile Version 3.0.
comment
ASCII

DATASET POLYDATA
POINTS 24272 double
0.0511315 0.464504 0.297671
0.0157073 0.583506 0.276363
0.464385 0.378209 0.505421
0.483881 0.411776 0.411173
0.0848889 0.473855 0.426774
0.10146 0.551471 0.497158
0.115285 0.707483 0.596632
0.0758227 0.65656 0.500661
0.669619 0.50153 0.641675
0.65584 0.540776 0.729932
0.127605 0.478722 0.515557
0.10146 0.551471 0.497158
0.0317943 0.507105 0.184388
0.105544 0.509453 0.0994787
0.0317943 0.507105 0.184388
0.125721 0.576211 0.187412
0.226628 0.438446 0.668873
0.201346 0.432812 0.565867
0.124586 0.492563 0.592272
0.0935685 0.587681 0.599054
0.307581 0.188826 0.264713
0.304922 0.281885 0.217652
0.304877 0.671818 0.32803
0.294055 0.585307 0.368081
0.0341133 0.114245 0.316406
0.0843561 0.0944496 0.39888
0.449223 0.593532 0.458447
0.377541 0.537391 0.404349
0.106859 0.255212 0.199003
0.0538104 0.20929 0.141139
0.106859 0.255212 0.199003
0.0767332 0.335347 0.229181
0.449223 0.593532 0.458447
0.384865 0.693217 0.467085
0.0004964 0.542716 0.452639
0.0605389 0.606154 0.399641
0.137974 0.246847 0.0966136
0.0538104 0.20929 0.141139
0.588265 -0.00640965 0.490848
0.590781 -0.00242307 0.390473
0.0926993 0.113189 0.262327
0.147576 0.167693 0.295799
0.0605389 0.606154 0.399641
0.0758227 0.65656 0.500661
0.0758227 0.65656 0.500661
0.156422 0.608825 0.460475
0.123322 0.0338264 0.500286
0.0572811 0.0924469 0.514565
0.115399 0.355818 0.652293
0.0360942 0.330573 0.723017
0.130731 -0.0190304 0.405021
0.131212 0.0362724 0.305898
0.319404 0.770609 0.491818
0.327978 0.743989 0.411346
0.0949506 0.0425542 0.178204
0.1398 0.152195 0.173976
0.553967 0.502159 0.607999
0.587318 0.459568 0.699561
0.512502 0.351774 0.584575
0.547478 0.286466 0.535068
0.339449 0.289431 0.67078
0.371523 0.233494 0.59986
0.137974 0.246847 0.0966136
0.166424 0.156329 0.0317601
0.218933 0.251004 0.159538
0.137974 0.246847 0.0966136
0.155701 0.392345 0.277467
0.0844258 0.356899 0.377367
0.0844258 0.356899 0.377367
0.135879 0.269747 0.303608
0.141721 0.371873 0.480719
0.0844258 0.356899 0.377367
0.101621 0.0408313 0.678601
0.17018 0.0540579 0.732174
0.0605389 0.606154 0.399641
0.063161 0.676988 0.318849
0.0605389 0.606154 0.399641
0.16452 0.556354 0.365504
0.333084 0.594168 0.475169
0.296385 0.67072 0.424886
0.526606 0.50436 0.425477
0.455532 0.550334 0.356402
0.619033 0.0756922 0.346208
0.703649 0.12363 0.381625
0.406862 0.134983 0.615472
0.489659 0.188812 0.64184
0.171772 0.128777 0.47764
0.123322 0.0338264 0.500286
0.130731 -0.0190304 0.405021
0.123322 0.0338264 0.500286
0.1398 0.152195 0.173976
0.0720943 0.189521 0.24147
0.654877 0.455802 0.301288
0.641592 0.562499 0.3122
0.630103 0.466352 0.553801
0.709292 0.442512 0.490764
0.513804 0.11148 0.637603
0.494679 0.116644 0.549904
0.155701 0.392345 0.277467
0.0511315 0.464504 0.297671
0.0940183 0.0199039 0.0323351
0.156144 -0.00848282 0.0868251
0.155701 0.392345 0.277467
0.135879 0.269747 0.303608
0.0753196 0.404852 0.117289
0.141209 0.338753 0.158231
0.074453 0.305432 0.535158
0.160756 0.274113 0.504107
0.121837 0.266796 0.608504
0.074453 0.305432 0.535158
0.52101 0.152413 0.719304
0.489659 0.188812 0.64184
0.464673 0.688989 0.289213
0.39965 0.648655 0.354974
0.196279 0.533438 0.644677
0.144967 0.449032 0.649485
0.105544 0.509453 0.0994787
0.139202 0.450987 0.179364
0.626781 0.447751 0.392778
0.64344 0.392401 0.435711
0.682038 0.0571036 0.465431
0.703649 0.12363 0.381625
0.182513 0.566341 0.0220289
0.135744 0.49027 0.00391408
0.166424 0.156329 0.0317601
0.224164 0.0846108 0.0919914
0.121837 0.266796 0.608504
0.0705197 0.189325 0.6065
0.171772 0.128777 0.47764
0.0843561 0.0944496 0.39888
0.130731 -0.0190304 0.405021
0.0843561 0.0944496 0.39888
0.175888 0.319382 0.739187
0.101646 0.239639 0.70596
0.186521 0.561096 0.536875
0.0935685 0.587681 0.599054
0.196279 0.533438 0.644677
0.0935685 0.587681 0.599054
0.141209 0.338753 0.158231
0.0767332 0.335347 0.229181
0.171772 0.128777 0.47764
0.157437 0.218012 0.444875
0.123737 0.0822245 0.0893688
0.156144 -0.00848282 0.0868251
0.636802 0.575156 0.403015
0.641592 0.562499 0.3122
0.141209 0.338753 0.158231
0.174737 0.40956 0.0855214
0.141209 0.338753 0.158231
0.200023 0.306314 0.227174
0.200039 0.488779 0.458702
0.127605 0.478722 0.515557
0.124586 0.492563 0.592272
0.0753148 0.415648 0.56393
0.696345 0.663745 0.16421
0.661357 0.584239 0.158737
0.221145 0.706398 0.737785
0.138624 0.659206 0.706302
0.181937 0.101432 0.257829
0.1398 0.152195 0.173976
0.212814 0.185128 0.109304
0.1398 0.152195 0.173976
0.185029 0.0608793 0.170941
0.1398 0.152195 0.173976
0.101132 0.240547 0.396938
0.135879 0.269747 0.303608
0.667367 0.503323 0.136227
0.732089 0.572292 0.0890638
0.592054 0.300035 0.62006
0.671665 0.29605 0.597058
0.115285 0.707483 0.596632
0.158102 0.642892 0.543792
0.115285 0.707483 0.596632
0.138624 0.659206 0.706302
0.174042 0.0897576 0.58194
0.222807 0.0101534 0.643333
0.307373 0.0594095 0.138841
0.260194 0.033114 0.233466
0.155701 0.392345 0.277467
0.139202 0.450987 0.179364
0.327025 0.078338 0.572379
0.310054 0.0597009 0.644598
0.155701 0.392345 0.277467
0.200023 0.306314 0.227174
0.155701 0.392345 0.277467
0.187452 0.40652 0.389051
0.200039 0.488779 0.458702
0.16452 0.556354 0.365504
0.176488 0.507474 0.259163
0.16452 0.556354 0.365504
0.216849 0.641117 0.405973
0.16452 0.556354 0.365504
0.020062 0.267017 0.354706
0.0844258 0.356899 0.377367
0.591095 0.284189 0.161418
0.67484 0.310885 0.0777794
0.159836 0.68126 0.226098
0.103219 0.673623 0.147478
0.115399 0.355818 0.652293
0.161809 0.333634 0.569618
0.181937 0.101432 0.257829
0.147576 0.167693 0.295799
0.219851 0.107688 0.678802
0.17018 0.0540579 0.732174
0.20936 0.209827 0.243769
0.135879 0.269747 0.303608
0.160603 0.198437 0.367814
0.135879 0.269747 0.303608
0.200023 0.306314 0.227174
0.135879 0.269747 0.303608
0.755918 0.508572 0.562254
0.669088 0.55635 0.536236
0.580701 0.158392 0.28313
0.507874 0.251688 0.267384
0.247263 0.284459 0.317205
0.135879 0.269747 0.303608
0.125721 0.576211 0.187412
0.186708 0.56761 0.109065
-0.00274499 0.426605 0.384836
0.0511315 0.464504 0.297671
0.175888 0.319382 0.739187
0.235735 0.339732 0.642023
0.175888 0.319382 0.739187
0.214577 0.231079 0.682473
0.243928 0.496077 0.162536
0.139202 0.450987 0.179364
0.188263 0.298559 0.407265
0.160756 0.274113 0.504107
0.164908 0.408926 -0.00820328
0.174737 0.40956 0.0855214
0.588265 -0.00640965 0.490848
0.682038 0.0571036 0.465431
0.630103 0.466352 0.553801
0.669619 0.50153 0.641675
0.285683 0.0671859 0.730475
0.368359 0.0815983 0.694385
0.188263 0.298559 0.407265
0.141721 0.371873 0.480719
0.141721 0.371873 0.480719
0.161809 0.333634 0.569618
0.422499 0.258785 0.65787
0.48347 0.239658 0.709373
0.141721 0.371873 0.480719
0.187452 0.40652 0.389051
0.668565 0.200527 0.627795
0.593098 0.139659 0.663745
0.131212 0.0362724 0.305898
0.181937 0.101432 0.257829
0.131212 0.0362724 0.305898
0.201693 0.108761 0.360641
0.630103 0.466352 0.553801
0.645506 0.387841 0.613176
0.188263 0.298559 0.407265
0.30627 0.289993 0.425999
0.216849 0.641117 0.405973
0.156422 0.608825 0.460475
0.273456 0.31252 0.013965
0.259869 0.336321 0.1137
0.442122 0.355229 0.0495329
0.481713 0.432587 0.102751
0.6572 0.158594 0.515728
0.718393 0.246669 0.536762
0.478166 0.28671 0.053381
0.504687 0.284557 0.121684
0.130731 -0.0190304 0.405021
0.228147 0.0310343 0.446421
0.235084 0.202116 0.412282
0.188263 0.298559 0.407265
0.188263 0.298559 0.407265
0.247263 0.284459 0.317205
0.634846 0.360095 0.354588
0.553326 0.426569 0.345383
0.257696 0.127773 0.275151
0.181937 0.101432 0.257829
0.020062 0.267017 0.354706
0.0377435 0.262898 0.261537
0.127605 0.478722 0.515557
0.0753148 0.415648 0.56393
0.216434 0.708174 0.151479
0.159836 0.68126 0.226098
0.159836 0.68126 0.226098
0.224835 0.617033 0.287893
0.279868 0.247723 0.600571
0.237864 0.213048 0.514268
0.200039 0.488779 0.458702
0.186521 0.561096 0.536875
0.200039 0.488779 0.458702
0.201346 0.432812 0.565867
0.200039 0.488779 0.458702
0.27824 0.404576 0.452268
0.371252 0.434217 0.529043
0.364291 0.403791 0.602716
0.121837 0.266796 0.608504
0.150912 0.197517 0.565455
0.174042 0.0897576 0.58194
0.260094 0.0993783 0.601143
0.115399 0.355818 0.652293
0.0753148 0.415648 0.56393
0.214577 0.231079 0.682473
0.149486 0.15604 0.649872
0.696117 0.189139 0.291104
0.62954 0.287232 0.271564
0.0304384 0.577261 0.52011
-0.000786588 0.635538 0.566515
0.158102 0.642892 0.543792
0.239477 0.646504 0.502192
0.235735 0.339732 0.642023
0.161809 0.333634 0.569618
0.161809 0.333634 0.569618
0.201346 0.432812 0.565867
0.197559 0.262698 0.578155
0.161809 0.333634 0.569618
0.259869 0.336321 0.1137
0.218933 0.251004 0.159538
0.260194 0.033114 0.233466
0.181937 0.101432 0.257829
0.480662 0.612541 0.295082
0.464673 0.688989 0.289213
0.212814 0.185128 0.109304
0.261746 0.141755 0.179412
0.29658 0.45552 0.619042
0.295806 0.49861 0.524014
0.0407108 0.179859 0.0296445
0.053303 0.136106 0.0950626
0.654877 0.455802 0.301288
0.553326 0.426569 0.345383
0.0598012 0.414554 0.205847
0.0767332 0.335347 0.229181
0.186521 0.561096 0.536875
0.196279 0.533438 0.644677
0.453693 0.341188 0.128071
0.408841 0.248901 0.118644
0.6572 0.158594 0.515728
0.739292 0.13779 0.465335
0.669619 0.50153 0.641675
0.729442 0.566154 0.703379
0.669619 0.50153 0.641675
0.659373 0.611813 0.629265
0.219851 0.107688 0.678802
0.222807 0.0101534 0.643333
0.285683 0.0671859 0.730475
0.219851 0.107688 0.678802
0.259869 0.336321 0.1137
0.174737 0.40956 0.0855214
0.193699 0.49932 0.0679364
0.174737 0.40956 0.0855214
0.553967 0.502159 0.607999
0.593018 0.555947 0.683569
0.414085 0.454384 0.465879
0.427306 0.469559 0.386456
0.265474 0.437302 0.0781841
0.340209 0.41554 0.105443
0.690167 0.653463 0.455389
0.636802 0.575156 0.403015
0.20309 0.635243 0.0654088
0.288592 0.688025 0.084737
0.654877 0.455802 0.301288
0.613225 0.381567 0.251397
0.235084 0.202116 0.412282
0.160603 0.198437 0.367814
0.123322 0.0338264 0.500286
0.202887 0.0110231 0.540801
0.235735 0.339732 0.642023
0.201346 0.432812 0.565867
0.235735 0.339732 0.642023
0.250675 0.321247 0.526785
[...]
CELL_DATA 12136

SCALARS kn double 1
LOOKUP_TABLE default
6.06156e+06
4.7627e+06
4.92836e+06
5.5556e+06
4.36765e+06
3.78469e+06
5.39595e+06
5.60819e+06
4.8737e+06
4.49487e+06
4.75201e+06
4.36265e+06
4.41438e+06
4.94251e+06
4.36173e+06
4.35479e+06
5.70868e+06
4.86161e+06
4.83376e+06
4.71062e+06
4.05034e+06
5.48106e+06
4.80536e+06
4.26778e+06
5.25297e+06
5.43102e+06
4.03836e+06
5.66689e+06
5.05334e+06
4.15425e+06
4.57309e+06
5.51936e+06
4.8551e+06
6.14153e+06
6.01437e+06
5.71537e+06
4.2101e+06
5.15818e+06
5.75487e+06
4.67792e+06
5.18697e+06
4.96853e+06
4.69524e+06
5.20076e+06
5.20299e+06
4.61955e+06
5.13042e+06
4.79111e+06
4.29032e+06
6.19808e+06
4.10986e+06
6.10405e+06
4.89032e+06
4.6507e+06
4.57479e+06
4.31782e+06
4.46066e+06
4.49043e+06
5.02295e+06
3.4725e+06
5.24573e+06
4.38068e+06
5.27856e+06
4.46483e+06
5.88788e+06
5.89075e+06
5.46924e+06
5.44598e+06
5.99774e+06
4.58719e+06
4.31626e+06
4.64398e+06
4.40428e+06
5.14477e+06
4.59849e+06
4.22864e+06
4.36301e+06
4.13212e+06
4.42291e+06
4.93694e+06
4.64454e+06
4.56612e+06
4.79343e+06
4.98096e+06
3.96418e+06
4.26617e+06
5.85753e+06
5.31621e+06
5.08924e+06
5.46578e+06
3.67807e+06
5.04934e+06
5.54424e+06
5.77039e+06
5.6043e+06
4.98027e+06
5.34688e+06
5.81093e+06
4.45797e+06
4.6089e+06
4.02646e+06
4.3316e+06
5.32873e+06
4.44425e+06
4.96307e+06
4.8499e+06
5.73513e+06
5.37919e+06
4.66462e+06
5.1075e+06
5.56248e+06
5.37359e+06
5.45931e+06
4.91297e+06
4.41683e+06
5.59089e+06
4.74662e+06
4.33741e+06
5.47618e+06
4.66179e+06
3.92127e+06
5.19458e+06
4.76048e+06
4.55548e+06
5.49692e+06
4.64419e+06
5.74818e+06
4.20842e+06
4.83311e+06
4.75118e+06
5.22835e+06
3.51921e+06
5.61627e+06
5.14288e+06
5.19362e+06
5.06597e+06
3.95094e+06
4.55098e+06
4.30059e+06
4.47201e+06
5.2858e+06
4.9194e+06
5.14663e+06
5.78427e+06
5.53058e+06
3.84214e+06
4.15347e+06
4.18232e+06
5.46929e+06
4.98058e+06
5.78329e+06
3.82875e+06
4.19709e+06
4.81967e+06
4.92469e+06
3.82789e+06
4.93353e+06
4.9308e+06
3.74594e+06
4.44587e+06
4.94781e+06
3.80986e+06
5.48922e+06
4.06561e+06
5.32739e+06
4.6369e+06
4.59004e+06
5.06469e+06
5.29537e+06
4.82112e+06
4.43028e+06
5.545e+06
4.36098e+06
4.69231e+06
3.94386e+06
3.96654e+06
5.0188e+06
4.73795e+06
4.50925e+06
4.07261e+06
4.40694e+06
6.0173e+06
5.65162e+06
4.90182e+06
5.21888e+06
4.84253e+06
5.62341e+06
4.73563e+06
4.40503e+06
5.0772e+06
4.14174e+06
5.89215e+06
4.81074e+06
4.88041e+06
5.68543e+06
4.68479e+06
4.87018e+06
4.32777e+06
4.78073e+06
4.89806e+06
4.4334e+06
5.9899e+06
4.62619e+06
4.41274e+06
3.9805e+06
5.42737e+06
6.00136e+06
5.44635e+06
4.77082e+06
4.58361e+06
5.79481e+06
3.74461e+06
4.27241e+06
4.4565e+06
4.21928e+06
4.33467e+06
4.0917e+06
4.94779e+06
4.67836e+06
4.92727e+06
4.31609e+06
5.46363e+06
4.60491e+06
3.85015e+06
5.73857e+06
5.47718e+06
4.66578e+06
4.06661e+06
5.12528e+06
5.07221e+06
5.12482e+06
4.1534e+06
5.83627e+06
4.96203e+06
5.32394e+06
5.78609e+06
4.84454e+06
4.85763e+06
4.39275e+06
4.24266e+06
4.74654e+06
5.81609e+06
4.41536e+06
4.37799e+06
5.68363e+06
4.23306e+06
5.60602e+06
3.85382e+06
5.7736e+06
4.43988e+06
3.82965e+06
4.38147e+06
4.26052e+06
5.80864e+06
3.8532e+06
5.0291e+06
4.99468e+06
3.849e+06
5.05869e+06
5.27488e+06
4.91413e+06
4.9314e+06
4.44695e+06
4.7062e+06
4.48533e+06
5.04908e+06
5.33564e+06
4.2869e+06
4.54024e+06
3.64185e+06
5.68288e+06
5.13741e+06
4.59263e+06
5.54182e+06
4.77333e+06
4.32728e+06
5.04636e+06
5.32825e+06
5.40382e+06
4.8379e+06
4.87856e+06
5.48061e+06
3.86533e+06
4.83954e+06
4.70323e+06
5.63619e+06
4.80818e+06
4.16107e+06
5.41511e+06
4.23138e+06
5.58065e+06
5.25066e+06
4.68172e+06
4.01521e+06
5.63379e+06
5.81566e+06
4.64061e+06
5.27926e+06
5.20023e+06
5.17161e+06
4.67313e+06
5.04334e+06
4.64199e+06
4.47513e+06
5.00799e+06
4.61013e+06
4.25706e+06
5.12644e+06
3.50952e+06
5.71805e+06
4.35212e+06
4.44369e+06
4.74192e+06
4.86802e+06
4.46599e+06
4.54441e+06
4.31045e+06
5.0991e+06
4.40068e+06
5.48015e+06
4.86347e+06
5.33127e+06
4.81478e+06
4.59808e+06
4.85791e+06
5.00172e+06
5.07686e+06
5.49383e+06
4.10732e+06
4.97289e+06
4.80396e+06
5.23791e+06
6.14057e+06
3.92686e+06
4.7566e+06
5.63235e+06
4.88865e+06
4.89265e+06
4.032e+06
5.4852e+06
3.93628e+06
5.93414e+06
5.71225e+06
4.55779e+06
5.86021e+06
5.915e+06
3.86082e+06
3.75405e+06
4.79769e+06
5.8558e+06
5.70521e+06
4.99883e+06
3.83093e+06
4.60989e+06
4.58232e+06
4.58465e+06
4.12282e+06
4.97297e+06
5.05546e+06
4.15765e+06
4.13074e+06
4.52805e+06
5.38418e+06
4.09382e+06
4.7006e+06
4.45124e+06
3.58966e+06
3.79843e+06
4.72442e+06
4.60346e+06
5.69627e+06
5.00637e+06
5.50347e+06
4.91401e+06
5.46901e+06
4.62862e+06
3.63282e+06
4.37057e+06
5.34023e+06
4.54327e+06
4.25483e+06
4.42452e+06
4.67736e+06
5.00642e+06
4.12216e+06
6.18758e+06
5.01452e+06
3.86413e+06
4.46882e+06
4.95984e+06
4.8288e+06
4.34653e+06
5.00551e+06
4.51462e+06
4.9417e+06
3.97898e+06
5.19846e+06
5.4866e+06
4.40685e+06
4.18923e+06
5.79699e+06
4.41393e+06
5.45441e+06
4.75537e+06
5.05931e+06
4.82064e+06
4.67827e+06
5.58535e+06
5.74572e+06
4.49264e+06
3.91259e+06
4.44168e+06
4.70873e+06
5.7823e+06
5.61093e+06
5.26624e+06
4.34001e+06
5.57701e+06
5.08229e+06
5.50569e+06
5.81161e+06
5.76806e+06
4.53238e+06
4.3117e+06
3.73566e+06
3.88803e+06
4.90033e+06
4.37177e+06
4.07511e+06
5.09074e+06
4.51938e+06
4.32224e+06
4.80304e+06
4.35737e+06
4.6665e+06
5.17757e+06
4.05343e+06
4.82532e+06
6.01202e+06
4.02434e+06
4.51959e+06
5.03786e+06
3.95575e+06
5.45393e+06
4.86088e+06
4.76815e+06
4.45723e+06
5.37232e+06
6.03834e+06
5.33888e+06
4.91223e+06
5.59535e+06
5.16054e+06
4.74582e+06
5.73882e+06
5.65787e+06
5.80555e+06
4.57908e+06
5.28953e+06
5.23732e+06
4.25966e+06
5.13859e+06
4.6866e+06
4.52084e+06
4.73476e+06
4.81139e+06
4.22415e+06
4.81555e+06
4.38572e+06
3.86079e+06
4.71512e+06
4.01569e+06
5.13449e+06
5.11139e+06
5.26237e+06
4.22864e+06
4.13573e+06
5.17492e+06
4.2617e+06
4.37253e+06
4.29751e+06
5.45232e+06
3.88988e+06
4.10406e+06
5.48767e+06
5.00255e+06
4.37465e+06
5.79497e+06
5.04004e+06
5.31997e+06
3.79605e+06
5.22496e+06
5.39544e+06
4.54062e+06
4.64253e+06
5.14062e+06
4.25401e+06
4.59642e+06
3.98011e+06
4.53511e+06
5.23434e+06
3.76314e+06
4.70882e+06
5.27089e+06
4.43338e+06
5.38262e+06
4.80523e+06
5.63692e+06
4.73785e+06
5.04459e+06
4.72216e+06
4.51432e+06
4.96158e+06
4.68189e+06
5.47313e+06
5.85055e+06
4.60887e+06
5.76777e+06
5.02347e+06
4.58655e+06
3.60424e+06
5.74168e+06
5.74766e+06
5.02066e+06
4.53868e+06
5.06508e+06
4.86756e+06
5.43461e+06
3.84104e+06
4.06829e+06
4.32891e+06
5.89896e+06
4.21463e+06
3.75551e+06
4.36835e+06
4.70731e+06
4.50744e+06
4.61475e+06
4.54269e+06
4.31078e+06
4.72525e+06
4.5865e+06
5.08115e+06
4.33401e+06
5.45134e+06
3.70009e+06
4.89402e+06
5.48622e+06
4.75757e+06
5.99664e+06
5.23756e+06
4.25627e+06
4.47371e+06
5.68557e+06
3.98811e+06
4.51583e+06
4.41905e+06
5.43957e+06
5.48916e+06
4.51777e+06
4.76849e+06
4.88049e+06
4.55513e+06
5.949e+06
5.53691e+06
5.06125e+06
5.33909e+06
4.45789e+06
5.0766e+06
4.59051e+06
5.75601e+06
4.2875e+06
3.88044e+06
4.88402e+06
4.70498e+06
4.59198e+06
3.82347e+06
3.4641e+06
4.73466e+06
3.68075e+06
4.59216e+06
3.74982e+06
5.04596e+06
5.74317e+06
5.81209e+06
4.56962e+06
5.53576e+06
4.22252e+06
5.70192e+06
4.35509e+06
4.85092e+06
4.79663e+06
4.57889e+06
4.48048e+06
5.43641e+06
4.48951e+06
4.12695e+06
3.99523e+06
4.87001e+06
4.47324e+06
5.68433e+06
3.90253e+06
4.67702e+06
4.94262e+06
5.12287e+06
4.11018e+06
5.82694e+06
4.13987e+06
4.34084e+06
5.24824e+06
5.81551e+06
5.17365e+06
4.60408e+06
4.91011e+06
4.44462e+06
4.81866e+06
3.77267e+06
5.02073e+06
5.11195e+06
4.98479e+06
4.15865e+06
4.51774e+06
5.12666e+06
5.00123e+06
4.88238e+06
3.76975e+06
4.59449e+06
5.16896e+06
5.10121e+06
4.24687e+06
5.17062e+06
4.66303e+06
4.55714e+06
5.83824e+06
3.5463e+06
4.69025e+06
4.16921e+06
4.74263e+06
3.45266e+06
4.97726e+06
3.85187e+06
4.35268e+06
4.98595e+06
4.49865e+06
3.98841e+06
3.55316e+06
4.58265e+06
4.05941e+06
5.55066e+06
4.09797e+06
5.39889e+06
4.65659e+06
5.14744e+06
4.74029e+06
4.27959e+06
4.62045e+06
4.52275e+06
4.59305e+06
4.60009e+06
5.59389e+06
5.61367e+06
4.07112e+06
5.20353e+06
5.57988e+06
4.138e+06
5.50439e+06
4.74471e+06
4.83859e+06
4.83541e+06
4.16588e+06
4.99273e+06
4.0683e+06
4.18283e+06
4.07226e+06
5.70632e+06
4.23848e+06
5.31817e+06
3.93378e+06
4.48346e+06
4.82338e+06
4.79414e+06
3.99126e+06
4.59372e+06
5.25021e+06
4.87316e+06
5.05539e+06
4.81669e+06
4.62081e+06
4.80692e+06
5.54914e+06
3.78714e+06
4.21856e+06
4.719e+06
5.23457e+06
4.40378e+06
4.91619e+06
4.33048e+06
4.3331e+06
4.90994e+06
4.17271e+06
4.33359e+06
4.21302e+06
5.62752e+06
4.65871e+06
4.4327e+06
5.77011e+06
4.78741e+06
5.77321e+06
4.86236e+06
4.57268e+06
4.58607e+06
3.96869e+06
4.3158e+06
4.43964e+06
3.89218e+06
4.2784e+06
4.22888e+06
4.36415e+06
4.69503e+06
5.28066e+06
3.63948e+06
4.93206e+06
5.24854e+06
3.87446e+06
4.371e+06
3.93996e+06
4.92724e+06
5.73849e+06
4.35476e+06
5.63924e+06
5.44188e+06
4.34634e+06
4.402e+06
4.32534e+06
5.72556e+06
5.54541e+06
4.59805e+06
5.619e+06
4.63556e+06
4.01478e+06
5.96837e+06
3.59183e+06
5.27491e+06
5.55566e+06
3.92453e+06
5.28657e+06
5.26658e+06
5.08603e+06
3.71707e+06
5.02824e+06
4.59923e+06
3.97355e+06
3.90622e+06
5.38708e+06
4.05381e+06
4.46372e+06
4.56103e+06
4.6678e+06
4.17161e+06
3.64944e+06
5.03571e+06
3.55669e+06
4.34566e+06
3.83807e+06
3.8812e+06
4.43729e+06
4.34278e+06
4.62667e+06
4.65865e+06
3.91533e+06
4.4741e+06
4.30444e+06
5.00123e+06
4.1755e+06
4.56078e+06
4.53581e+06
5.08143e+06
3.91573e+06
4.60581e+06
5.8957e+06
4.25473e+06
4.14586e+06
3.92253e+06
4.39781e+06
5.504e+06
4.30646e+06
4.40946e+06
5.16216e+06
4.24824e+06
5.2455e+06
3.95088e+06
4.50366e+06
4.80828e+06
4.43712e+06
4.36364e+06
5.5594e+06
4.35518e+06
5.78329e+06
5.88147e+06
4.31296e+06
4.18591e+06
5.78561e+06
4.46664e+06
4.47796e+06
5.40321e+06
4.02109e+06
5.65662e+06
4.49434e+06
4.36483e+06
4.40979e+06
5.00563e+06
4.37227e+06
4.04866e+06
4.18641e+06
3.92976e+06
3.88732e+06
4.13865e+06
4.26697e+06
4.97977e+06
4.04504e+06
5.57554e+06
4.65711e+06
3.59928e+06
4.42393e+06
4.41418e+06
4.86383e+06
4.09407e+06
5.1088e+06
4.17549e+06
4.8548e+06
4.23284e+06
5.90103e+06
5.87712e+06
5.02251e+06
4.44631e+06
4.78253e+06
3.73141e+06
4.20136e+06
5.408e+06
5.64505e+06
4.24181e+06
5.85507e+06
4.17305e+06
4.35124e+06
5.45337e+06
4.17945e+06
3.83585e+06
3.72992e+06
4.20247e+06
3.99711e+06
4.9799e+06
4.9617e+06
4.19515e+06
4.1568e+06
4.13393e+06
5.46839e+06
4.4112e+06
4.8282e+06
5.26804e+06
4.85564e+06
5.74809e+06
5.42129e+06
5.21786e+06
5.10066e+06
4.39259e+06
5.08166e+06
3.69121e+06
4.5036e+06
5.06698e+06
4.13915e+06
4.70445e+06
3.844e+06
5.63018e+06
4.95208e+06
5.83776e+06
4.44648e+06
4.47865e+06
4.49167e+06
4.49389e+06
4.37265e+06
4.73327e+06
5.7432e+06
4.89546e+06
4.04298e+06
5.57551e+06
4.99581e+06
3.97502e+06
4.32869e+06
3.80052e+06
5.44929e+06
5.78255e+06
3.91389e+06
4.37105e+06
4.86664e+06
5.62448e+06
4.78169e+06
3.97881e+06
3.96862e+06
4.61107e+06
4.66293e+06
4.71101e+06
3.69182e+06
4.56371e+06
4.72903e+06
5.4785e+06
4.72064e+06
5.04438e+06
4.2395e+06
4.64319e+06
3.99501e+06
4.77707e+06
4.30997e+06
5.41535e+06
4.52717e+06
5.13506e+06
5.85143e+06
3.89102e+06
5.28595e+06
5.1536e+06
4.83542e+06
4.35108e+06
4.91101e+06
3.77456e+06
5.88428e+06
4.67469e+06
4.23554e+06
5.02573e+06
4.35406e+06
4.34634e+06
4.35951e+06
4.51735e+06
5.52988e+06
4.48675e+06
5.90299e+06
4.16839e+06
6.01743e+06
3.59141e+06
4.12528e+06
4.28313e+06
4.17127e+06
4.31613e+06
4.19905e+06
5.54394e+06
5.34869e+06
5.13974e+06
5.87615e+06
4.39663e+06
4.10655e+06
4.65167e+06
5.47016e+06
4.35917e+06
5.75008e+06
5.31711e+06
4.20495e+06
4.41038e+06
4.16379e+06
5.00118e+06
4.78796e+06
4.58125e+06
4.22328e+06
5.90213e+06
5.61087e+06
4.32727e+06
5.92264e+06
3.47768e+06
4.77958e+06
4.4447e+06
3.8517e+06
4.04607e+06
5.91199e+06
4.52196e+06
4.42172e+06
5.40107e+06
4.66746e+06
4.55621e+06
3.71877e+06
4.88542e+06
5.09736e+06
4.81599e+06
4.28658e+06
5.04488e+06
4.3684e+06
5.51513e+06
4.22685e+06
4.48478e+06
5.66638e+06
4.5935e+06
4.89247e+06
4.09957e+06
3.70746e+06
5.60925e+06
4.21423e+06
4.70603e+06
4.6952e+06
5.76058e+06
4.77743e+06
4.3063e+06
4.41932e+06
4.93263e+06
4.8881e+06
4.42702e+06
4.40959e+06
4.86348e+06
4.08435e+06
4.30195e+06
5.30594e+06
4.15316e+06
4.55341e+06
4.51433e+06
4.11018e+06
4.21665e+06
4.53163e+06
4.26976e+06
4.79101e+06
4.4915e+06
3.93912e+06
4.21233e+06
4.68523e+06
6.02467e+06
4.74998e+06
4.11121e+06
4.83228e+06
4.6988e+06
4.03062e+06
4.70275e+06
4.3414e+06
4.40488e+06
4.739e+06
3.85868e+06
4.15297e+06
4.33622e+06
4.10079e+06
4.69987e+06
5.00123e+06
5.02615e+06
4.98243e+06
4.70832e+06
4.20291e+06
5.85082e+06
5.20363e+06
4.74269e+06
4.45322e+06
4.26586e+06
5.09113e+06
4.60229e+06
4.2601e+06
4.94071e+06
4.18872e+06
4.45213e+06
5.01472e+06
3.84865e+06
4.85379e+06
3.98847e+06
4.09236e+06
3.69674e+06
3.83794e+06
4.17605e+06
4.58816e+06
4.53671e+06
4.49565e+06
6.01339e+06
4.02094e+06
3.93464e+06
5.40132e+06
4.12099e+06
4.3943e+06
3.73549e+06
5.30611e+06
4.45932e+06
5.36053e+06
4.29067e+06
3.6732e+06
4.20408e+06
4.20919e+06
5.00901e+06
4.50461e+06
3.75431e+06
4.76055e+06
3.81518e+06
4.47784e+06
3.73005e+06
4.45618e+06
4.49549e+06
4.1839e+06
3.75088e+06
4.63247e+06
3.85248e+06
5.36351e+06
5.04355e+06
3.74885e+06
4.79832e+06
3.80268e+06
5.14816e+06
4.3884e+06
4.32567e+06
4.08424e+06
5.58913e+06
3.97779e+06
5.33626e+06
5.36502e+06
3.42774e+06
3.9153e+06
4.53023e+06
4.73462e+06
5.02221e+06
4.84366e+06
4.06901e+06
3.93368e+06
4.44787e+06
4.02555e+06
5.90648e+06
5.14141e+06
5.18077e+06
4.82422e+06
4.49736e+06
5.40194e+06
5.43179e+06
4.91779e+06
5.08803e+06
4.27646e+06
4.58555e+06
5.02622e+06
3.75265e+06
4.8934e+06
4.9742e+06
4.56086e+06
4.96111e+06
4.55428e+06
4.6869e+06
3.75941e+06
5.86151e+06
3.80446e+06
5.29111e+06
4.61726e+06
6.14603e+06
4.43395e+06
4.70448e+06
4.62336e+06
4.2473e+06
4.77659e+06
4.1487e+06
5.19423e+06
3.90102e+06
4.43147e+06
4.15778e+06
3.94274e+06
5.19932e+06
4.07151e+06
4.48104e+06
4.73516e+06
4.27287e+06
4.38887e+06
4.50377e+06
4.41505e+06
5.6519e+06
4.79081e+06
5.09643e+06
3.83183e+06
4.00495e+06
3.91668e+06
3.8707e+06
5.62775e+06
4.14406e+06
3.96888e+06
4.25672e+06
5.0211e+06
3.90781e+06
4.41378e+06
4.62337e+06
3.98927e+06
4.38419e+06
3.80986e+06
3.98927e+06
4.38419e+06
3.80986e+06
3.98927e+06
4.38419e+06
3.80986e+06
3.98927e+06
4.38419e+06
5.60085e+06
5.15818e+06
5.48107e+06
5.60086e+06
5.75487e+06
5.15818e+06
5.48107e+06
5.60086e+06
5.75487e+06
5.15818e+06
5.48107e+06
5.60086e+06
5.75487e+06
4.7006e+06
4.31296e+06
4.49565e+06
4.7006e+06
4.31296e+06
4.49565e+06
4.7006e+06
4.31296e+06
4.49565e+06
4.15316e+06
4.36173e+06
5.02221e+06
4.83376e+06
4.15316e+06
4.36173e+06
5.02221e+06
4.83376e+06
4.15316e+06
4.36173e+06
5.02221e+06
4.83376e+06
4.27646e+06
4.27646e+06
4.27646e+06
3.87404e+06
4.3329e+06
3.87404e+06
4.33291e+06
3.87404e+06
4.33291e+06
3.87404e+06
4.33291e+06
5.33409e+06
5.01378e+06
5.33409e+06
5.01378e+06
5.33409e+06
5.01378e+06
5.33409e+06
5.01378e+06
3.93378e+06
4.84253e+06
3.93378e+06
4.84253e+06
3.93378e+06
4.84253e+06
3.85719e+06
3.47981e+06
3.85719e+06
3.47981e+06
3.85719e+06
3.47981e+06
3.85719e+06
3.47981e+06
5.46929e+06
5.54394e+06
4.36301e+06
4.3006e+06
5.46929e+06
5.54394e+06
4.36301e+06
4.3006e+06
5.46929e+06
5.54394e+06
4.36301e+06
4.3006e+06
3.63282e+06
4.26779e+06
3.63282e+06
4.26779e+06
3.63282e+06
4.26779e+06
5.83777e+06
5.5556e+06
5.68012e+06
5.09946e+06
4.80536e+06
4.26697e+06
5.83777e+06
5.5556e+06
5.68012e+06
5.09946e+06
4.80536e+06
4.26697e+06
5.83777e+06
5.5556e+06
5.68012e+06
5.09946e+06
4.80536e+06
4.26697e+06
5.68011e+06
5.09946e+06
3.70746e+06
3.97825e+06
4.40979e+06
3.70746e+06
3.97825e+06
4.40979e+06
3.70746e+06
3.97825e+06
4.40979e+06
3.97825e+06
4.30195e+06
4.06561e+06
4.3414e+06
4.30195e+06
4.06561e+06
4.3414e+06
4.30195e+06
4.06561e+06
4.3414e+06
4.60408e+06
4.60408e+06
4.60408e+06
6.01437e+06
5.71537e+06
6.14153e+06
5.47016e+06
6.01437e+06
5.71537e+06
6.14153e+06
5.47016e+06
6.01437e+06
5.71537e+06
6.14153e+06
5.47016e+06
3.93368e+06
4.46483e+06
4.62336e+06
4.32776e+06
3.93368e+06
4.46483e+06
4.62336e+06
4.32776e+06
3.93368e+06
4.46483e+06
4.62336e+06
4.32776e+06
5.89075e+06
5.88788e+06
5.96837e+06
5.89075e+06
5.88788e+06
5.96837e+06
5.89075e+06
5.88788e+06
5.96837e+06
4.92836e+06
4.39275e+06
4.31614e+06
4.92836e+06
4.39275e+06
4.31614e+06
4.92836e+06
4.39275e+06
4.31614e+06
4.21233e+06
4.66745e+06
5.66638e+06
4.21233e+06
4.66745e+06
5.66638e+06
4.21233e+06
4.66745e+06
5.66638e+06
5.08166e+06
4.16588e+06
5.08166e+06
4.16588e+06
5.08166e+06
4.16588e+06
4.57479e+06
4.6507e+06
4.57479e+06
4.6507e+06
4.57479e+06
4.6507e+06
4.20136e+06
4.81599e+06
4.89032e+06
5.00901e+06
4.20136e+06
4.81599e+06
4.89032e+06
5.00901e+06
4.20136e+06
4.81599e+06
4.89032e+06
5.00901e+06
4.87856e+06
5.83627e+06
4.49487e+06
5.99774e+06
5.44598e+06
4.87856e+06
5.83627e+06
4.49487e+06
5.99774e+06
5.44598e+06
4.87856e+06
5.83627e+06
4.49487e+06
5.99774e+06
5.44598e+06
4.3548e+06
4.58719e+06
5.03572e+06
4.3548e+06
4.58719e+06
5.03572e+06
4.3548e+06
4.58719e+06
5.03572e+06
3.91572e+06
4.61954e+06
3.91572e+06
4.61954e+06
3.91572e+06
4.61954e+06
4.16379e+06
4.54327e+06
4.91937e+06
4.16379e+06
4.54327e+06
4.91937e+06
4.16379e+06
4.54327e+06
4.91937e+06
4.91937e+06
4.15762e+06
3.51844e+06
3.55669e+06
4.00964e+06
4.15762e+06
3.51844e+06
3.55669e+06
4.00964e+06
4.15762e+06
3.51844e+06
3.55669e+06
4.00964e+06
4.15762e+06
3.51844e+06
4.00964e+06
4.02555e+06
3.75551e+06
4.02555e+06
3.75551e+06
4.02555e+06
3.75551e+06
4.32183e+06
5.44428e+06
4.32182e+06
5.66689e+06
4.84366e+06
5.44428e+06
4.28658e+06
4.32182e+06
5.66689e+06
4.84366e+06
5.44428e+06
4.28658e+06
4.32182e+06
5.66689e+06
4.84366e+06
5.44428e+06
4.28658e+06
4.87316e+06
5.64256e+06
5.5341e+06
5.46923e+06
5.55566e+06
4.87316e+06
5.64256e+06
5.5341e+06
5.46923e+06
5.55566e+06
4.87316e+06
5.64256e+06
5.5341e+06
5.46923e+06
5.55566e+06
5.64256e+06
5.5341e+06
4.31654e+06
4.8934e+06
4.31654e+06
4.8934e+06
4.31654e+06
4.8934e+06
4.31654e+06
4.97289e+06
4.58606e+06
4.05034e+06
4.97289e+06
4.58606e+06
4.05034e+06
4.97289e+06
4.58606e+06
4.05034e+06
4.95984e+06
5.38709e+06
4.89402e+06
5.02295e+06
4.95984e+06
5.38709e+06
4.89402e+06
5.02295e+06
4.95984e+06
5.38709e+06
4.89402e+06
5.02295e+06
3.72742e+06
4.55028e+06
3.72742e+06
4.55028e+06
4.10986e+06
3.72742e+06
4.55028e+06
4.10986e+06
3.72742e+06
4.55028e+06
4.10986e+06
4.5613e+06
5.85752e+06
5.09832e+06
4.26617e+06
5.71788e+06
4.5613e+06
5.85752e+06
5.09832e+06
4.26617e+06
5.71789e+06
4.5613e+06
5.85752e+06
5.09832e+06
4.26617e+06
5.71789e+06
4.5613e+06
5.09832e+06
5.71789e+06
3.78469e+06
4.20408e+06
4.50366e+06
3.78469e+06
4.20408e+06
4.50366e+06
3.78469e+06
4.20408e+06
4.50366e+06
4.79343e+06
3.69674e+06
3.75431e+06
4.79343e+06
3.69674e+06
3.75431e+06
4.79343e+06
3.69674e+06
3.75431e+06
5.19932e+06
4.74269e+06
5.19932e+06
4.74269e+06
5.19932e+06
4.74269e+06
4.50461e+06
4.39346e+06
4.50461e+06
4.39346e+06
4.50461e+06
4.39346e+06
4.39346e+06
4.41623e+06
4.72525e+06
4.6089e+06
4.41623e+06
4.72525e+06
4.6089e+06
4.41623e+06
4.72525e+06
4.6089e+06
4.41623e+06
4.14407e+06
3.98841e+06
4.34084e+06
4.14407e+06
3.98841e+06
4.34084e+06
4.14407e+06
3.98841e+06
4.34084e+06
4.2101e+06
4.2101e+06
4.2101e+06
4.45798e+06
4.16214e+06
3.55316e+06
4.45798e+06
4.16215e+06
3.55316e+06
4.45798e+06
4.16214e+06
3.55316e+06
4.16214e+06
4.57268e+06
5.63019e+06
5.36351e+06
4.2601e+06
4.66462e+06
4.57268e+06
5.63019e+06
5.36351e+06
4.2601e+06
4.66462e+06
4.57268e+06
5.63019e+06
5.36351e+06
4.2601e+06
4.66462e+06
4.45061e+06
5.52771e+06
4.86451e+06
5.203e+06
5.43101e+06
4.45061e+06
5.52771e+06
5.61627e+06
4.86451e+06
5.203e+06
5.43101e+06
4.45061e+06
5.52771e+06
5.61627e+06
4.86451e+06
5.203e+06
5.43101e+06
4.45061e+06
5.52771e+06
5.61627e+06
4.86451e+06
3.99501e+06
3.99501e+06
3.99501e+06
6.10405e+06
4.74998e+06
4.44424e+06
5.75008e+06
4.96307e+06
5.32873e+06
5.37919e+06
6.10405e+06
4.74998e+06
4.44424e+06
5.75008e+06
4.96307e+06
5.32873e+06
5.37919e+06
6.10405e+06
4.74998e+06
4.44424e+06
5.75008e+06
4.96307e+06
5.32873e+06
5.37919e+06
5.40689e+06
6.03982e+06
4.81724e+06
5.40689e+06
6.03982e+06
4.81725e+06
4.42291e+06
5.40689e+06
6.03982e+06
4.81724e+06
4.42291e+06
5.40689e+06
6.03982e+06
4.81724e+06
4.42291e+06
5.20076e+06
4.40694e+06
5.20076e+06
4.40694e+06