# vtk DataFile Version 3.0.
comment
ASCII

DATASET POLYDATA
POINTS 3880 double
0.382542 0.0786302 0.201971
0.58195 0.244801 0.560938
0.707393 0.41985 0.654502
1.45936 0.508127 0.356468
0.545185 0.683155 0.206348
0.357064 0.538679 0.401768
0.317903 0.515878 0.590226
0.252857 0.201774 0.251551
0.382819 0.476742 0.0537225
0.0821747 0.161024 0.694854
0.55195 0.417626 0.16995
0.634086 0.560928 0.0301104
0.00850539 0.157726 0.161499
0.132624 0.445155 0.239513
0.654606 0.056025 0.255499
0.0317571 0.164411 0.474121
0.736108 0.577052 0.509845
0.0951051 0.349242 0.244145
0.207332 0.471508 0.159571
0.265017 0.329305 0.275194
0.701453 0.739375 0.0348925
0.504655 0.374781 0.401037
0.582053 0.229989 0.438363
0.0691258 0.229091 0.0995375
0.189501 0.626974 0.54874
0.0559618 0.31837 0.373675
0.226524 0.626784 0.0217944
0.630779 0.336819 0.565287
0.235669 0.255144 0.0883615
0.229293 0.335639 0.00108275
0.519778 0.181498 1.4506
0.0416983 0.302316 0.570092
0.744689 0.038868 0.299336
0.515936 0.176257 0.618705
0.626622 0.378179 0.722257
0.717541 0.294702 0.0594641
0.104902 0.092704 0.013819
0.523172 0.401378 0.738373
0.185166 0.125224 0.196988
0.713602 0.256267 0.123122
0.170904 0.690051 0.214189
0.130834 0.0119518 0.392263
0.56469 0.186054 0.16504
0.634944 0.452959 0.653393
0.258367 0.289897 0.193329
0.637303 0.118426 0.335337
0.20335 0.668775 0.675958
0.102253 0.677731 0.438731
0.00962749 0.439207 0.545594
0.100486 0.390031 0.662743
0.717171 0.438052 0.141088
0.434991 0.537691 0.427183
0.319752 0.263599 0.301391
0.304139 0.616776 0.150969
0.296764 0.626366 0.547889
0.537479 0.340487 0.566563
0.233568 0.752754 0.159455
0.711692 0.347711 0.681721
0.4354 0.379564 0.69033
0.557618 0.350708 0.304178
0.746186 0.422088 0.0642574
0.766545 0.716329 0.399976
0.690018 0.41559 0.21272
0.00418704 0.581535 0.709237
0.664818 0.572465 0.443713
0.474079 0.67703 0.272949
0.19549 0.357795 0.225154
0.519049 0.0815614 0.597876
0.15864 0.689735 0.495318
0.098969 0.45656 0.501763
0.721356 1.42746 0.228302
0.417517 0.744192 0.407304
0.0988054 0.231749 0.426829
0.40485 0.46812 0.550829
0.408639 0.0151933 0.232907
0.336523 0.156645 0.273518
0.331489 0.195479 0.440307
0.0643612 0.492099 0.737971
0.521428 0.503864 0.176877
0.641162 0.33428 0.810313
0.29465 0.107506 0.201249
0.497716 0.587671 0.226812
0.657717 0.0702333 0.42142
0.237899 0.679574 0.48807
0.483984 0.0213691 0.221839
0.271789 0.171067 0.680158
0.70294 0.053512 0.122554
0.0647876 0.648824 0.52377
0.15776 0.420704 0.0740807
0.271224 0.558544 0.0852868
0.394091 0.75499 0.6891
0.69427 0.226965 0.188236
0.253374 0.440621 0.565824
0.578206 0.328264 0.392878
0.349921 0.657094 0.260114
0.481912 0.490678 0.575743
0.383932 0.391944 0.596517
0.262697 0.259293 0.512509
0.366679 0.455243 0.346908
0.463948 0.578031 0.620931
0.196145 0.316501 0.445551
0.503834 0.20232 0.346466
0.616793 0.49334 0.589655
1.46775 0.619353 0.307966
0.141426 0.309277 0.540746
0.547251 0.137228 0.081967
0.757339 0.229737 0.393076
0.192152 0.371488 0.622087
0.493851 0.696215 0.355289
0.543483 0.150571 0.294394
0.0563755 0.19407 0.27055
0.620171 0.310897 0.484691
0.448137 0.338013 0.52265
0.486006 0.186453 0.223772
0.699875 0.514118 0.102282
0.449135 0.554156 0.129384
0.144602 0.598773 0.245981
0.0745195 0.725243 0.60458
0.509846 0.544948 0.674024
0.209383 0.101649 0.0178008
0.700358 0.36519 0.497444
0.184999 0.721915 0.312466
0.260412 0.0742589 0.636212
0.0874337 1.44405 0.173682
0.731973 0.0593005 0.463038
0.523524 0.31183 0.480296
0.166042 0.368471 0.333099
0.552731 0.618668 1.45488
0.0673179 0.0631054 0.341325
0.0183558 0.271174 0.472517
0.154518 0.538634 0.0662323
0.471329 0.543611 0.0252829
0.361863 0.360299 0.280442
0.0491046 0.175712 0.59276
0.0274301 0.401586 0.710857
0.368289 0.346222 0.483685
0.220377 0.547246 0.704583
0.644393 0.292733 0.648356
0.564104 0.50218 0.00766466
0.19378 0.0244919 0.463653
0.313402 0.517489 0.697411
0.679302 0.216043 0.471247
0.145012 0.277028 0.368532
0.424798 0.277739 0.46736
0.499072 0.317354 0.0177084
0.0975011 0.310446 0.464781
0.0793964 0.0866525 0.237659
0.334866 0.306288 0.114775
0.164255 0.506302 0.579259
0.712345 0.527864 0.255093
0.433468 0.286166 0.0934689
0.479491 0.262878 0.671758
0.590616 0.0890432 0.470017
0.34198 0.370726 0.0181802
0.417373 0.0486204 0.598581
0.445777 0.468551 0.303445
0.534412 0.745547 0.670916
0.316858 0.582793 0.335839
0.147288 0.666025 0.614488
0.668388 0.471909 0.440647
0.679311 0.11057 0.719147
0.341885 0.46285 0.256806
0.221278 0.45767 0.344192
0.253414 0.523742 0.501299
0.299416 0.206852 0.155061
0.243614 0.248824 0.656125
0.466017 0.363623 0.217803
0.253159 0.102097 0.309484
0.0758268 0.0850062 0.642089
0.469377 0.671244 0.455034
0.698521 0.597632 0.634403
0.691437 0.480551 0.00391601
0.453473 0.101379 0.67503
0.367575 0.312184 0.653514
0.415366 0.187998 0.480694
0.547176 0.463701 0.272802
0.749764 0.103276 0.0647471
0.579138 0.0503562 0.376526
1.47182 0.509164 0.625445
0.671847 0.431179 0.584155
0.728394 0.0825433 0.369481
0.47969 0.536141 0.308002
0.685327 0.301444 0.40444
0.600389 0.0501244 0.039939
0.279135 0.180945 0.500007
0.449633 0.0974094 0.279738
0.264071 0.394223 0.474181
0.732875 0.0349858 0.679834
0.516782 0.413786 0.475909
0.411359 0.723138 0.315266
0.0725254 0.465636 0.119574
0.757241 0.594545 0.589612
0.627467 0.614749 0.358332
0.457889 0.231286 0.038028
0.416638 0.25465 0.617863
0.402181 0.276929 0.20826
0.139202 0.105302 0.446891
0.589065 0.387844 0.0818111
0.678095 0.60681 0.0983748
0.682171 0.21429 0.0655181
0.362414 0.64762 0.110046
0.518884 0.635397 0.1307
0.48118 0.619605 0.540622
0.596268 0.671047 0.0899792
0.034581 0.594413 0.416874
0.640294 0.272086 0.750886
0.0942536 0.0950349 0.117902
0.0555485 0.34208 0.102438
0.448431 0.670443 0.664241
0.28932 0.481044 0.4122
0.787753 0.327827 0.663115
0.329437 0.405212 0.103652
1.46879 0.345984 0.276532
0.503056 0.283454 0.267984
0.0386785 0.572425 0.0857014
0.370101 0.0984388 0.118277
0.62497 0.707901 0.242868
0.714783 0.361077 0.0299138
0.588595 0.606776 0.183384
0.595601 0.0103362 0.538549
0.584968 0.333746 0.145371
0.629007 0.548128 0.660089
0.778127 0.434536 0.218214
0.560072 0.253196 0.0757037
0.0352047 0.0758318 0.537896
0.140168 0.302487 0.0529595
0.0908588 0.236058 0.517312
0.499305 0.581378 0.452306
0.697693 0.223681 0.308348
0.469952 0.440095 0.174899
0.67285 0.401055 0.0764617
0.746037 0.159938 0.680963
0.617603 0.376647 0.242807
0.171812 0.715586 0.125378
0.232585 0.194839 0.572465
0.496842 0.295671 0.160664
0.419966 0.163529 0.58423
0.279984 0.72431 0.722147
0.331775 0.0797744 0.554453
0.362265 0.101195 0.455376
0.493358 0.473776 0.386552
0.297865 0.143857 0.091737
0.227365 0.548846 0.368358
0.573581 0.666435 0.299089
0.0639047 0.310272 0.741111
0.749898 0.41259 0.41355
1.44612 0.446325 0.280093
0.27924 0.770112 0.0830859
0.365223 0.3068 0.37992
0.158581 0.152145 0.273099
0.163789 0.141656 0.627524
0.215049 0.276743 0.586998
0.191215 0.459788 0.435098
0.60223 0.515154 0.368263
0.612304 0.399015 0.455766
0.383797 0.583892 1.45104
0.384886 0.302965 0.564022
0.771402 0.0543181 0.153991
0.413456 0.749447 0.127353
0.600368 0.57199 0.270737
0.0573105 0.278935 0.286488
0.104661 0.378219 0.0156819
0.195882 0.51962 0.270896
0.107049 0.00702577 0.091186
0.555008 0.657477 0.612889
0.754573 0.190135 0.0268062
0.610203 0.0466643 0.162622
0.0512853 0.617076 0.197372
0.44692 0.128882 0.0510113
0.152246 0.255418 0.272692
0.133336 0.390132 0.160455
0.392142 0.597957 0.480518
0.065378 0.729925 1.45666
0.392397 0.472907 0.441609
0.542577 0.346074 0.21199
0.336664 0.00666923 0.165356
0.683614 0.65424 0.554491
0.347928 0.142417 0.361618
0.335364 0.430017 0.51956
0.20869 0.202895 0.165474
0.582904 0.619057 0.513238
0.629172 0.315709 0.314084
0.159584 0.0267005 0.658893
0.132625 0.244958 0.611238
0.122133 0.644998 0.102339
0.456737 0.0276124 0.7502
0.396677 0.196631 0.689598
0.667691 0.649939 0.722459
0.650205 0.408271 0.353924
0.0978726 0.389513 0.573012
0.632191 0.404983 0.140117
0.680311 0.211692 0.693394
0.658799 1.44541 0.33967
0.0829625 0.232756 0.0146563
0.165816 0.456446 0.70061
0.119631 0.532107 0.185865
0.0739203 0.633106 0.619926
0.53424 0.453582 0.645989
0.538497 0.13409 0.397488
0.645961 0.492418 0.287939
0.434998 0.669478 0.173831
0.420227 0.530091 0.357405
0.148621 0.283871 0.15603
0.348161 0.0548522 0.285702
0.0293617 0.676382 0.114076
0.475638 0.285933 0.382231
0.232588 0.277971 0.345898
0.364754 0.574792 0.0790816
0.0522628 0.371553 0.495833
0.4612 0.192718 0.403967
0.645735 0.199887 0.134454
0.687944 0.057998 0.546233
0.26079 0.129012 0.421825
0.335282 1.43736 0.6205
0.496678 0.0539821 0.359722
0.265511 0.0107131 0.249809
0.615296 0.167121 0.502456
0.114769 0.182084 0.184203
0.315316 0.638633 0.0367947
0.503751 0.0417757 0.473401
0.0833851 0.745405 0.480814
0.473514 0.0961073 0.160464
0.281364 0.380031 0.366575
0.539551 0.341702 0.659313
0.659238 0.122025 0.0947044
0.174988 0.184614 0.368676
0.420114 0.38847 0.409073
0.0543796 0.153603 0.366193
0.283095 0.310478 0.654063
0.678522 0.60321 0.202709
0.0632539 0.41725 0.320668
0.0807492 0.472652 0.640583
0.558615 0.0444688 0.279415
0.419544 0.434857 0.23725
0.515997 0.092062 0.740315
0.524921 0.349288 0.0868569
0.612579 0.264878 0.224335
0.28589 0.500348 0.305922
0.628942 0.148184 0.428305
0.0768637 0.695852 0.290966
0.569359 0.554305 0.10443
0.181882 0.205424 0.487955
0.341004 0.102862 0.00759829
0.198 0.595146 0.629882
0.10511 0.648212 0.372885
0.0888226 0.489079 0.400208
0.131535 0.0578842 0.560551
0.236004 0.621259 0.281955
0.337024 0.414224 0.437596
0.437472 0.11447 0.38576
0.281038 0.69733 0.33796
0.225233 0.104165 0.529718
0.0351774 0.268674 0.195316
0.450103 0.503053 0.210482
0.74823 0.520624 0.175558
0.565939 0.259138 0.701364
0.288398 0.621034 0.672257
0.291544 0.340937 0.563404
0.244401 0.486126 0.643928
0.152119 0.0875958 0.336084
1.47573 0.122497 0.287988
0.358754 0.672181 0.714982
0.610651 0.18042 0.74943
0.694541 0.649989 0.40021
0.25896 0.658225 0.196577
0.228564 0.112114 0.124298
0.287558 0.5455 0.212717
[...]
POINT_DATA 3880
SCALARS radius double 1
LOOKUP_TABLE default
0.0355739
0.0636002
0.0384742
0.0599919
0.0515742
0.0410619
0.0535555
0.0565269
0.0642086
0.0455724
0.0485564
0.0417284
0.0612022
0.0494718
0.0393488
0.0580678
0.041605
0.0539882
0.0633021
0.041826
0.054213
0.0356188
0.0565544
0.0511316
0.0431353
0.0594672
0.0436423
0.041118
0.0533154
0.0641153
0.0542113
0.0555453
0.0401379
0.0480716
0.0604046
0.0359848
0.0408318
0.0470856
0.0412358
0.0387298
0.0561877
0.0501133
0.0478382
0.041522
0.0493062
0.0596873
0.0392238
0.0359322
0.0511608
0.0416726
0.0438021
0.0352825
0.0476296
0.0375718
0.0642106
0.0396199
0.0435109
0.038971
0.0555413
0.0355664
0.0398916
0.0598823
0.0360491
0.054732
0.0560424
0.0461811
0.0486036
0.0490944
0.0450349
0.0499168
0.0554892
0.0525538
0.0483877
0.0390208
0.0398902
0.0399426
0.0418999
0.0547202
0.0433386
0.0391206
0.0569523
0.0572725
0.0413626
0.0353003
0.0365435
0.0505124
0.0374383
0.061444
0.0480691
0.0564461
0.038881
0.0354061
0.048615
0.0519269
0.0630948
0.0354537
0.0524503
0.0424886
0.0561419
0.0386249
0.0616242
0.0355989
0.0359936
0.0618057
0.0487268
0.0500314
0.0373533
0.0595599
0.0407185
0.0480742
0.0500533
0.0444834
0.0359493
0.050469
0.0434329
0.0568581
0.044304
0.050535
0.039164
0.0641936
0.0535042
0.0481586
0.0564254
0.0464056
0.036222
0.0525182
0.061687
0.0641146
0.0421788
0.0496728
0.0635484
0.050568
0.0601462
0.0627874
0.0467999
0.0506568
0.0471182
0.0540793
0.0526703
0.0405677
0.0510198
0.0470667
0.0390185
0.039671
0.041711
0.039115
0.0648512
0.0616063
0.063206
0.0430013
0.0413781
0.0465946
0.0436552
0.0549277
0.0458685
0.0353409
0.0498553
0.0478753
0.0440683
0.0446455
0.0521339
0.0352029
0.0413302
0.0566956
0.0509564
0.0356854
0.0437853
0.0591348
0.0439787
0.0482295
0.0350112
0.0609791
0.0541186
0.0469554
0.0515796
0.0643343
0.0485683
0.0390235
0.058046
0.036905
0.0441646
0.0409664
0.0595671
0.0592184
0.0388368
0.0609336
0.0454791
0.0369276
0.0500896
0.0426555
0.0586099
0.0390583
0.0456248
0.0383527
0.0367116
0.0575326
0.0585535
0.0362937
0.0519528
0.0394727
0.0405122
0.0419586
0.0514197
0.0527009
0.0625752
0.0470071
0.0537277
0.0614653
0.0648169
0.0485749
0.0420942
0.0381448
0.0643857
0.0578841
0.0587371
0.0510822
0.0399226
0.0369162
0.039309
0.0612045
0.0448755
0.0541808
0.054615
0.0641694
0.0512527
0.0444053
0.0426722
0.0465827
0.0648447
0.0350829
0.0375373
0.0393946
0.0518408
0.036274
0.0410793
0.0503595
0.0549964
0.0563498
0.0524211
0.0535805
0.0603447
0.0383806
0.0532323
0.0469023
0.0395324
0.0550057
0.0385132
0.047192
0.0530065
0.0439129
0.0619905
0.0442216
0.0545828
0.0576508
0.0487591
0.0516548
0.0423503
0.0383353
0.0362777
0.0555719
0.0364662
0.0418698
0.0533202
0.0392708
0.0543266
0.0463719
0.0640483
0.0625817
0.0539731
0.059635
0.0469225
0.0560802
0.0608375
0.0436593
0.0350436
0.0574329
0.0620572
0.0498787
0.0462788
0.040585
0.0523227
0.0427731
0.0574021
0.0473866
0.0534082
0.0512921
0.0579274
0.0528943
0.0604148
0.0483535
0.0382353
0.0455475
0.0634822
0.0351133
0.0592381
0.0462987
0.0365536
0.059701
0.0565767
0.036538
0.0587264
0.0368495
0.0608323
0.0497259
0.0420279
0.0598633
0.0515027
0.0386925
0.043086
0.0366849
0.0399878
0.0433166
0.0569814
0.0580229
0.0414029
0.0510461
0.0393369
0.0502054
0.04725
0.0549222
0.0459252
0.0607463
0.0594348
0.0533293
0.0487001
0.0584641
0.0496313
0.0528301
0.0376363
0.052754
0.0530463
0.0462663
0.0605215
0.0436881
0.0370361
0.0388051
0.061722
0.0451672
0.0385127
0.0625605
0.0575761
0.0581243
0.0635385
0.0446406
0.0364453
0.0576792
0.0495569
0.0566533
0.037405
0.0471541
0.0485088
0.0597145
0.0580598
0.0357734
0.0443272
0.0433433
0.0586687
0.0584648
0.0422901
0.0465586
0.0451677
0.0384164
0.0493526
0.0377994
0.0392605
0.0446212
0.0585436
0.0559821
0.0376263
0.0366971
0.0612598
0.0524982
0.0361747
0.0405251
0.0384542
0.0494898
0.040628
0.0375536
0.0602111
0.0375642
0.0465111
0.0538802
0.0362134
0.0361075
0.0431146
0.0404341
0.0559926
0.058418
0.0447914
0.0531101
0.0613536
0.0421772
0.0371712
0.0640965
0.0533132
0.0552404
0.0429109
0.0422651
0.0510407
0.0406764
0.0384593
0.064435
0.0542397
0.0555214
0.045471
0.0513944
0.0608713
0.0489535
0.0520221
0.0530782
0.0500197
0.0402399
0.0551162
0.0385461
0.0485338
0.0629836
0.0534352
0.0529097
0.0368219
0.0408981
0.0524253
0.0433984
0.0510285
0.0473238
0.0467849
0.0493388
0.0638475
0.0418495
0.0505802
0.0427162
0.0506698
0.0608478
0.0363261
0.0434459
0.0647423
0.037261
0.0564042
0.0569391
0.0364552
0.0629029
0.0354914
0.0644736
0.0490352
0.045115
0.0352011
0.0489688
0.0617558
0.0529354
0.0467266
0.0493054
0.0455274
0.0553926
0.0547795
0.0470622
0.0579993
0.0405507
0.043614
0.0367278
0.0555499
0.0634019
0.0368191
0.0538639
0.037419
0.0530302
0.0617556
0.0472674
0.0525767
0.0424053
0.0368797
0.0434353
0.0442104
0.0389905
0.0627983
0.0623346
0.0616191
0.0419592
0.0422053
0.0487742
0.037111
0.036654
0.0566402
0.0362813
0.0470138
0.0486222
0.061704
0.0355739
0.0636002
0.0384742
0.0599919
0.0515742
0.0410619
0.0535555
0.0565269
0.0642086
0.0455724
0.0485564
0.0417284
0.0612022
0.0494718
0.0393488
0.0580678
0.041605
0.0539882
0.0633021
0.041826
0.054213
0.0356188
0.0565544
0.0511316
0.0431353
0.0594672
0.0436423
0.041118
0.0533154
0.0641153
0.0542113
0.0555453
0.0401379
0.0480716
0.0604046
0.0359848
0.0408318
0.0470856
0.0412358
0.0387298
0.0561877
0.0501133
0.0478382
0.041522
0.0493062
0.0596873
0.0392238
0.0359322
0.0511608
0.0416726
0.0438021
0.0352825
0.0476296
0.0375718
0.0642106
0.0396199
0.0435109
0.038971
0.0555413
0.0355664
0.0398916
0.0598823
0.0360491
0.054732
0.0560424
0.0461811
0.0486036
0.0490944
0.0450349
0.0499168
0.0554892
0.0525538
0.0483877
0.0390208
0.0398902
0.0399426
0.0418999
0.0547202
0.0433386
0.0391206
0.0569523
0.0572725
0.0413626
0.0353003
0.0365435
0.0505124
0.0374383
0.061444
0.0480691
0.0564461
0.038881
0.0354061
0.048615
0.0519269
0.0630948
0.0354537
0.0524503
0.0424886
0.0561419
0.0386249
0.0616242
0.0355989
0.0359936
0.0618057
0.0487268
0.0500314
0.0373533
0.0595599
0.0407185
0.0480742
0.0500533
0.0444834
0.0359493
0.050469
0.0434329
0.0568581
0.044304
0.050535
0.039164
0.0641936
0.0535042
0.0481586
0.0564254
0.0464056
0.036222
0.0525182
0.061687
0.0641146
0.0421788
0.0496728
0.0635484
0.050568
0.0601462
0.0627874
0.0467999
0.0506568
0.0471182
0.0540793
0.0526703
0.0405677
0.0510198
0.0470667
0.0390185
0.039671
0.041711
0.039115
0.0648512
0.0616063
0.063206
0.0430013
0.0413781
0.0465946
0.0436552
0.0549277
0.0458685
0.0353409
0.0498553
0.0478753
0.0440683
0.0446455
0.0521339
0.0352029
0.0413302
0.0566956
0.0509564
0.0356854
0.0437853
0.0591348
0.0439787
0.0482295
0.0350112
0.0609791
0.0541186
0.0469554
0.0515796
0.0643343
0.0485683
0.0390235
0.058046
0.036905
0.0441646
0.0409664
0.0595671
0.0592184
0.0388368
0.0609336
0.0454791
0.0369276
0.0500896
0.0426555
0.0586099
0.0390583
0.0456248
0.0383527
0.0367116
0.0575326
0.0585535
0.0362937
0.0519528
0.0394727
0.0405122
0.0419586
0.0514197
0.0527009
0.0625752
0.0470071
0.0537277
0.0614653
0.0648169
0.0485749
0.0420942
0.0381448
0.0643857
0.0578841
0.0587371
0.0510822
0.0399226
0.0369162
0.039309
0.0612045
0.0448755
0.0541808
0.054615
0.0641694
0.0512527
0.0444053
0.0426722
0.0465827
0.0648447
0.0350829
0.0375373
0.0393946
0.0518408
0.036274
0.0410793
0.0503595
0.0549964
0.0563498
0.0524211
0.0535805
0.0603447
0.0383806
0.0532323
0.0469023
0.0395324
0.0550057
0.0385132
0.047192
0.0530065
0.0439129
0.0619905
0.0442216
0.0545828
0.0576508
0.0487591
0.0516548
0.0423503
0.0383353
0.0362777
0.0555719
0.0364662
0.0418698
0.0533202
0.0392708
0.0543266
0.0463719
0.0640483
0.0625817
0.0539731
0.059635
0.0469225
0.0560802
0.0608375
0.0436593
0.0350436
0.0574329
0.0620572
0.0498787
0.0462788
0.040585
0.0523227
0.0427731
0.0574021
0.0473866
0.0534082
0.0512921
0.0579274
0.0528943
0.0604148
0.0483535
0.0382353
0.0455475
0.0634822
0.0351133
0.0592381
0.0462987
0.0365536
0.059701
0.0565767
0.036538
0.0587264
0.0368495
0.0608323
0.0497259
0.0420279
0.0598633
0.0515027
0.0386925
0.043086
0.0366849
0.0399878
0.0433166
0.0569814
0.0580229
0.0414029
0.0510461
0.0393369
0.0502054
0.04725
0.0549222
0.0459252
0.0607463
0.0594348
0.0533293
0.0487001
0.0584641
0.0496313
0.0528301
0.0376363
0.052754
0.0530463
0.0462663
0.0605215
0.0436881
0.0370361
0.0388051
0.061722
0.0451672
0.0385127
0.0625605
0.0575761
0.0581243
0.0635385
0.0446406
0.0364453
0.0576792
0.0495569
0.0566533
0.037405
0.0471541
0.0485088
0.0597145
0.0580598
0.0357734
0.0443272
0.0433433
0.0586687
0.0584648
0.0422901
0.0465586
0.0451677
0.0384164
0.0493526
0.0377994
0.0392605
0.0446212
0.0585436
0.0559821
0.0376263
0.0366971
0.0612598
0.0524982
0.0361747
0.0405251
0.0384542
0.0494898
0.040628
0.0375536
0.0602111
0.0375642
0.0465111
0.0538802
0.0362134
0.0361075
0.0431146
0.0404341
0.0559926
0.058418
0.0447914
0.0531101
0.0613536
0.0421772
0.0371712
0.0640965
0.0533132
0.0552404
0.0429109
0.0422651
0.0510407
0.0406764
0.0384593
0.064435
0.0542397
0.0555214
0.045471
0.0513944
0.0608713
0.0489535
0.0520221
0.0530782
0.0500197
0.0402399
0.0551162
0.0385461
0.0485338
0.0629836
0.0534352
0.0529097
0.0368219
0.0408981
0.0524253
0.0433984
0.0510285
0.0473238
0.0467849
0.0493388
0.0638475
0.0418495
0.0505802
0.0427162
0.0506698
0.0608478
0.0363261
0.0434459
0.0647423
0.037261
0.0564042
0.0569391
0.0364552
0.0629029
0.0354914
0.0644736
0.0490352
0.045115
0.0352011
0.0489688
0.0617558
0.0529354
0.0467266
0.0493054
0.0455274
0.0553926
0.0547795
0.0470622
0.0579993
0.0405507
0.043614
0.0367278
0.0555499
0.0634019
0.0368191
0.0538639
0.037419
0.0530302
0.0617556
0.0472674
0.0525767
0.0424053
0.0368797
0.0434353
0.0442104
0.0389905
0.0627983
0.0623346
0.0616191
0.0419592
0.0422053
0.0487742
0.037111
0.036654
0.0566402
0.0362813
0.0470138
0.0486222
0.061704
0.0355739
0.0636002
0.0384742
0.0599919
0.0515742
0.0410619
0.0535555
0.0565269
0.0642086
0.0455724
0.0485564
0.0417284
0.0612022
0.0494718
0.0393488
0.0580678
0.041605
0.0539882
0.0633021
0.041826
0.054213
0.0356188
0.0565544
0.0511316
0.0431353
0.0594672
0.0436423
0.041118
0.0533154
0.0641153
0.0542113
0.0555453
0.0401379
0.0480716
0.0604046
0.0359848
0.0408318
0.0470856
0.0412358
0.0387298
0.0561877
0.0501133
0.0478382
0.041522
0.0493062
0.0596873
0.0392238
0.0359322
0.0511608
0.0416726
0.0438021
0.0352825
0.0476296
0.0375718
0.0642106
0.0396199
0.0435109
0.038971
0.0555413
0.0355664
0.0398916
0.0598823
0.0360491
0.054732
0.0560424
0.0461811
0.0486036
0.0490944
0.0450349
0.0499168
0.0554892
0.0525538
0.0483877
0.0390208
0.0398902
0.0399426
0.0418999
0.0547202
0.0433386
0.0391206
0.0569523
0.0572725
0.0413626
0.0353003
0.0365435
0.0505124
0.0374383
0.061444
0.0480691
0.0564461
0.038881
0.0354061
0.048615
0.0519269
0.0630948
0.0354537
0.0524503
0.0424886
0.0561419
0.0386249
0.0616242
0.0355989
0.0359936
0.0618057
0.0487268
0.0500314
0.0373533
0.0595599
0.0407185
0.0480742
0.0500533
0.0444834
0.0359493
0.050469
0.0434329
0.0568581
0.044304
0.050535
0.039164
0.0641936
0.0535042
0.0481586
0.0564254
0.0464056
0.036222
0.0525182
0.061687
0.0641146
0.0421788
0.0496728
0.0635484
0.050568
0.0601462
0.0627874
0.0467999
0.0506568
0.0471182
0.0540793
0.0526703
0.0405677
0.0510198
0.0470667
0.0390185
0.039671
0.041711
0.039115
0.0648512
0.0616063
0.063206
0.0430013
0.0413781
0.0465946
0.0436552
0.0549277
0.0458685
0.0353409
0.0498553
0.0478753
0.0440683
0.0446455
0.0521339
0.0352029
0.0413302
0.0566956
0.0509564
0.0356854
0.0437853
0.0591348
0.0439787
0.0482295
0.0350112
0.0609791
0.0541186
0.0469554
0.0515796
0.0643343
0.0485683
0.0390235
0.058046
0.036905
0.0441646
0.0409664
0.0595671
0.0592184
0.0388368
0.0609336
0.0454791
0.0369276
0.0500896
0.0426555
0.0586099
0.0390583
0.0456248
0.0383527
0.0367116
0.0575326
0.0585535
0.0362937
0.0519528
0.0394727
0.0405122
0.0419586
0.0514197
0.0527009
0.0625752
0.0470071
0.0537277
0.0614653
0.0648169
0.0485749
0.0420942
0.0381448
0.0643857
0.0578841
0.0587371
0.0510822
0.0399226
0.0369162
0.039309
0.0612045
0.0448755
0.0541808
0.054615
0.0641694
0.0512527
0.0444053
0.0426722
0.0465827
0.0648447
0.0350829
0.0375373
0.0393946
0.0518408
0.036274
0.0410793
0.0503595
0.0549964
0.0563498
0.0524211
0.0535805
0.0603447
0.0383806
0.0532323
0.0469023
0.0395324
0.0550057
0.0385132
0.047192
0.0530065
0.0439129
0.0619905
0.0442216
0.0545828
0.0576508
0.0487591
0.0516548
0.0423503
0.0383353
0.0362777
0.0555719
0.0364662
0.0418698
0.0533202
0.0392708
0.0543266
0.0463719
0.0640483
0.0625817
0.0539731
0.059635
0.0469225
0.0560802
0.0608375
0.0436593
0.0350436
0.0574329
0.0620572
0.0498787
0.0462788
0.040585
0.0523227
0.0427731
0.0574021
0.0473866
0.0534082
0.0512921
0.0579274
0.0528943
0.0604148
0.0483535
0.0382353
0.0455475
0.0634822
0.0351133
0.0592381
0.0462987
0.0365536
0.059701
0.0565767
0.036538
0.0587264
0.0368495
0.0608323
0.0497259
0.0420279
0.0598633
0.0515027
0.0386925
0.043086
0.0366849
0.0399878
0.0433166
0.0569814
0.0580229
0.0414029
0.0510461
0.0393369
0.0502054
0.04725
0.0549222
0.0459252
0.0607463
0.0594348
0.0533293
0.0487001
0.0584641
0.0496313
0.0528301
0.0376363
0.052754
0.0530463
0.0462663
0.0605215
0.0436881
0.0370361
0.0388051
0.061722
0.0451672
0.0385127
0.0625605
0.0575761
0.0581243
0.0635385
0.0446406
0.0364453
0.0576792
0.0495569
0.0566533
0.037405
0.0471541
0.0485088
0.0597145
0.0580598
0.0357734
0.0443272
0.0433433
0.0586687
0.0584648
0.0422901
0.0465586
0.0451677
0.0384164
0.0493526
0.0377994
0.0392605
0.0446212
0.0585436
0.0559821
0.0376263
0.0366971
0.0612598
0.0524982
0.0361747
0.0405251
0.0384542
0.0494898
0.040628
0.0375536
0.0602111
0.0375642
0.0465111
0.0538802
0.0362134
0.0361075
0.0431146
0.0404341
0.0559926
0.058418
0.0447914
0.0531101
0.0613536
0.0421772
0.0371712
0.0640965
0.0533132
0.0552404
0.0429109
0.0422651
0.0510407
0.0406764
0.0384593
0.064435
0.0542397
0.0555214
0.045471
0.0513944
0.0608713
0.0489535
0.0520221
0.0530782
0.0500197
0.0402399
0.0551162
0.0385461
0.0485338
0.0629836
0.0534352
0.0529097
0.0368219
0.0408981
0.0524253
0.0433984
0.0510285
0.0473238
0.0467849
0.0493388
0.0638475
0.0418495
0.0505802
0.0427162
0.0506698
0.0608478
0.0363261
0.0434459
0.0647423
0.037261
0.0564042
0.0569391
0.0364552
0.0629029
0.0354914
0.0644736
0.0490352
0.045115
0.0352011
0.0489688
0.0617558
0.0529354
0.0467266
0.0493054
0.0455274
0.0553926
0.0547795
0.0470622
0.0579993
0.0405507
0.043614
0.0367278
0.0555499
0.0634019
0.0368191
0.0538639
0.037419
0.0530302
0.0617556
0.0472674
0.0525767
0.0424053
0.0368797
0.0434353
0.0442104
0.0389905
0.0627983
0.0623346
0.0616191
0.0419592
0.0422053
0.0487742
0.037111
0.036654
0.0566402
0.0362813
0.0470138
0.0486222
0.061704
0.0355739
0.0636002
0.0384742
0.0599919
0.0515742
0.0410619
0.0535555
0.0565269
0.0642086
0.0455724
0.0485564
0.0417284
0.0612022
0.0494718
0.0393488
0.0580678
0.041605
0.0539882
0.0633021
0.041826
0.054213
0.0356188
0.0565544
0.0511316
0.0431353
0.0594672
0.0436423
0.041118
0.0533154
0.0641153
0.0542113
0.0555453
0.0401379
0.0480716
0.0604046
0.0359848
0.0408318
0.0470856
0.0412358
0.0387298
0.0561877
0.0501133
0.0478382
0.041522
0.0493062
0.0596873
0.0392238
0.0359322
0.0511608
0.0416726
0.0438021
0.0352825
0.0476296
0.0375718
0.0642106
0.0396199
0.0435109
0.038971
0.0555413
0.0355664
0.0398916
0.0598823
0.0360491
0.054732
0.0560424
0.0461811
0.0486036
0.0490944
0.0450349
0.0499168
0.0554892
0.0525538
0.0483877
0.0390208
0.0398902
0.0399426
0.0418999
0.0547202
0.0433386
0.0391206
0.0569523
0.0572725
0.0413626
0.0353003
0.0365435
0.0505124
0.0374383
0.061444
0.0480691
0.0564461
0.038881
0.0354061
0.048615
0.0519269
0.0630948
0.0354537
0.0524503
0.0424886
0.0561419
0.0386249
0.0616242
0.0355989
0.0359936
0.0618057
0.0487268
0.0500314
0.0373533
0.0595599
0.0407185
0.0480742
0.0500533
0.0444834
0.0359493
0.050469
0.0434329
0.0568581
0.044304
0.050535
0.039164
0.0641936
0.0535042
0.0481586
0.0564254
0.0464056
0.036222
0.0525182
0.061687
0.0641146
0.0421788
0.0496728
0.0635484
0.050568
0.0601462
0.0627874
0.0467999
0.0506568
0.0471182
0.0540793
0.0526703
0.0405677
0.0510198
0.0470667
0.0390185
0.039671
0.041711
0.039115
0.0648512
0.0616063
0.063206
0.0430013
0.0413781
0.0465946
0.0436552
0.0549277
0.0458685
0.0353409
0.0498553
0.0478753
0.0440683
0.0446455
0.0521339
0.0352029
0.0413302
0.0566956
0.0509564
0.0356854
0.0437853
0.0591348
0.0439787
0.0482295
0.0350112
0.0609791
0.0541186
0.0469554
0.0515796
0.0643343
0.0485683
0.0390235
0.058046
0.036905
0.0441646
0.0409664
0.0595671
0.0592184
0.0388368
0.0609336
0.0454791
0.0369276
0.0500896
0.0426555
0.0586099
0.0390583
0.0456248
0.0383527
0.0367116
0.0575326
0.0585535
0.0362937
0.0519528
0.0394727
0.0405122
0.0419586
0.0514197
0.0527009
0.0625752
0.0470071
0.0537277
0.0614653
0.0648169
0.0485749
0.0420942
0.0381448
0.0643857
0.0578841
0.0587371
0.0510822
0.0399226
0.0369162
0.039309
0.0612045
0.0448755
0.0541808
0.054615
0.0641694
0.0512527
0.0444053
0.0426722
0.0465827
0.0648447
0.0350829
0.0375373
0.0393946
0.0518408
0.036274
0.0410793
0.0503595
0.0549964
0.0563498
0.0524211
0.0535805
0.0603447
0.0383806
0.0532323
0.0469023
0.0395324
0.0550057
0.0385132
0.047192
0.0530065
0.0439129
0.0619905
0.0442216
0.0545828
0.0576508
0.0487591
0.0516548
0.0423503
0.0383353
0.0362777
0.0555719
0.0364662
0.0418698
0.0533202
0.0392708
0.0543266
0.0463719
0.0640483
0.0625817
0.0539731
0.059635
0.0469225
0.0560802
0.0608375
0.0436593
0.0350436
0.0574329
0.0620572
0.0498787
0.0462788
0.040585
0.0523227
0.0427731
0.0574021
0.0473866
0.0534082
0.0512921
0.0579274
0.0528943
0.0604148
0.0483535
0.0382353
0.0455475
0.0634822
0.0351133
0.0592381
0.0462987
0.0365536
0.059701
0.0565767
0.036538
0.0587264
0.0368495
0.0608323
0.0497259
0.0420279
0.0598633
0.0515027
0.0386925
0.043086
0.0366849
0.0399878
0.0433166
0.0569814
0.0580229
0.0414029
0.0510461
0.0393369
0.0502054
0.04725
0.0549222
0.0459252
0.0607463
0.0594348
0.0533293
0.0487001
0.0584641
0.0496313
0.0528301
0.0376363
0.052754
0.0530463
0.0462663
0.0605215
0.0436881
0.0370361
0.0388051
0.061722
0.0451672
0.0385127
0.0625605
0.0575761
0.0581243
0.0635385
0.0446406
0.0364453
0.0576792
0.0495569
0.0566533
0.037405
0.0471541
0.0485088
0.0597145
0.0580598
0.0357734
0.0443272
0.0433433
0.0586687
0.0584648
0.0422901
0.0465586
0.0451677
0.0384164
0.0493526
0.0377994
0.0392605
0.0446212
0.0585436
0.0559821
0.0376263
0.0366971
0.0612598
0.0524982
0.0361747
0.0405251
0.0384542
0.0494898
0.040628
0.0375536
0.0602111
0.0375642
0.0465111
0.0538802
0.0362134
0.0361075
0.0431146
0.0404341
0.0559926
0.058418
0.0447914
0.0531101
0.0613536
0.0421772
0.0371712
0.0640965
0.0533132
0.0552404
0.0429109
0.0422651
0.0510407
0.0406764
0.0384593
0.064435
0.0542397
0.0555214
0.045471
0.0513944
0.0608713
0.0489535
0.0520221
0.0530782
0.0500197
0.0402399
0.0551162
0.0385461
0.0485338
0.0629836
0.0534352
0.0529097
0.0368219
0.0408981
0.0524253
0.0433984
0.0510285
0.0473238
0.0467849
0.0493388
0.0638475
0.0418495
0.0505802
0.0427162
0.0506698
0.0608478
0.0363261
0.0434459
0.0647423
0.037261
0.0564042
0.0569391
0.0364552
0.0629029
0.0354914
0.0644736
0.0490352
0.045115
0.0352011
0.0489688
0.0617558
0.0529354
0.0467266
0.0493054
0.0455274
0.0553926
0.0547795
0.0470622
0.0579993
0.0405507
0.043614
0.0367278
0.0555499
0.0634019
0.0368191
0.0538639
0.037419
0.0530302
0.0617556
0.0472674
0.0525767
0.0424053
0.0368797
0.0434353
0.0442104
0.0389905
0.0627983
0.0623346
0.0616191
0.0419592
0.0422053
0.0487742
0.037111
0.036654
0.0566402
0.0362813
0.0470138
0.0486222
0.061704
0.0355739
0.0636002
0.0384742
0.0599919
0.0515742
0.0410619
0.0535555
0.0565269
0.0642086
0.0455724
0.0485564
0.0417284
0.0612022
0.0494718
0.0393488
0.0580678
0.041605
0.0539882
0.0633021
0.041826
0.054213
0.0356188
0.0565544
0.0511316
0.0431353
0.0594672
0.0436423
0.041118
0.0533154
0.0641153
0.0542113
0.0555453
0.0401379
0.0480716
0.0604046
0.0359848
0.0408318
0.0470856
0.0412358
0.0387298
0.0561877
0.0501133
0.0478382
0.041522
0.0493062
0.0596873
0.0392238
0.0359322
0.0511608
0.0416726
0.0438021
0.0352825
0.0476296
0.0375718
0.0642106
0.0396199
0.0435109
0.038971
0.0555413
0.0355664
0.0398916
0.0598823
0.0360491
0.054732
0.0560424
0.0461811
0.0486036
0.0490944
0.0450349
0.0499168
0.0554892
0.0525538
0.0483877