# vtk DataFile Version 3.0.
comment
ASCII

DATASET POLYDATA
POINTS 3832 double
0.448391 0.387556 0.0585365
0.500386 0.225946 0.0408743
0.695522 0.737643 0.118177
0.348393 0.515217 0.690478
0.176269 0.263081 0.128427
0.168919 0.461485 0.378066
0.582043 0.620533 0.222298
1.42566 0.321515 0.471196
0.299269 0.0774567 0.241331
0.220183 0.5168 0.240943
0.399227 0.150939 0.688529
0.370258 0.0139503 0.679769
0.717974 0.243701 0.129868
0.232675 0.411569 0.569195
0.476915 0.618683 0.62626
0.149239 0.417016 0.517054
0.465306 0.083203 0.300766
0.135845 0.253678 0.483422
0.614596 0.549028 0.164318
0.104358 0.134181 0.738257
0.439262 0.698412 0.108356
0.284415 0.415666 0.368358
0.581985 0.0503442 0.73271
0.502227 0.206188 0.526419
0.259433 0.736673 0.334729
0.339811 0.431605 0.564612
0.50951 0.093936 0.463261
0.21336 0.112594 0.595747
0.643596 0.367903 0.692582
0.653116 0.109946 0.323959
0.443861 1.43193 0.202031
0.00079369 0.402508 0.240985
0.424375 0.0782081 0.62947
0.367078 0.648782 0.0370886
0.451616 0.135106 0.141453
0.655373 0.303762 0.246184
0.104481 0.336164 0.354979
0.637087 0.461388 0.13231
0.424252 0.0721456 0.00291996
0.289694 0.250037 0.414304
0.556013 0.125307 0.0578683
0.110767 0.586951 0.507615
0.164565 0.470386 0.169568
0.318567 0.764132 0.410787
0.383671 0.558235 0.232751
0.271928 0.176429 0.437856
0.586888 1.45462 0.339054
0.355503 0.650555 0.235578
0.564203 0.634506 0.0289423
0.546448 0.47989 0.157641
0.449157 0.451413 0.709624
0.575222 0.702726 0.584916
0.596043 0.282944 0.108147
0.622898 0.497501 0.356818
0.270488 0.0467118 0.557414
0.0922485 0.565474 0.151271
0.0257731 0.636775 0.222852
0.262697 0.332194 0.426847
0.262503 0.500354 0.154042
0.274276 0.500594 0.612615
0.204859 0.0369942 0.664493
0.590062 0.54325 0.496001
0.43595 0.720867 0.577202
0.441951 0.451949 0.318134
0.192715 0.58877 0.734708
0.0878612 0.670733 0.241467
0.154781 0.691279 0.301936
0.0234079 0.185314 0.208639
0.0619944 0.1723 0.551295
0.326617 0.492374 0.294735
0.730017 0.644204 0.309554
0.0755706 0.620721 0.0751258
0.531586 0.263288 0.430519
0.0956341 0.420664 0.295316
0.378721 0.239222 0.335797
0.238134 0.238895 0.0102703
0.522208 0.310944 0.56976
0.668984 0.450715 0.605652
0.592839 0.317981 0.423237
0.658016 0.342666 0.553496
0.617915 0.283063 0.630423
0.736432 0.0939218 0.0590938
0.10155 0.0405073 0.366484
0.17184 0.635812 0.58692
0.225613 0.105414 0.301513
0.68015 0.270745 0.318191
0.449939 0.269917 0.397483
0.450724 0.372003 0.634813
0.717477 0.416769 0.369941
0.160779 0.255887 0.289608
0.0748781 0.00897955 0.502692
0.073591 0.669578 0.419155
0.101673 0.357956 0.682826
0.329915 0.256086 0.724433
0.163896 0.640425 0.111008
0.720848 0.497606 0.185419
0.149651 0.192746 0.592919
0.321611 0.683053 0.109518
0.149669 0.264821 0.551904
1.43335 0.174973 0.30548
0.425945 0.677789 0.372912
0.294261 0.521376 0.0780781
0.176446 0.196974 0.0651459
0.667261 0.705092 0.572965
0.281338 0.0417043 0.136349
0.302659 0.144759 0.534434
0.571203 0.0671683 0.622361
0.273836 0.416156 0.210331
0.586972 0.372213 0.366039
0.58421 0.498567 0.573627
0.0855381 0.595894 0.714022
0.562235 0.224815 0.194253
0.482123 0.22062 0.335552
0.639839 0.368723 0.175646
0.0115318 0.350963 0.0142342
0.405273 0.0946372 0.379893
0.0432473 0.665087 0.709676
0.31819 0.608487 0.506638
0.284807 0.51404 0.523288
0.348207 0.100522 0.745453
0.483685 0.756773 0.655314
0.387822 0.252007 0.540533
0.101894 0.609387 0.321359
0.0516814 0.136417 0.375471
0.4367 0.455759 0.4885
0.111283 0.207446 0.420654
0.207913 0.549986 0.336123
0.00482106 0.350371 0.627876
0.620709 0.643742 0.305935
0.442373 0.136124 0.250165
0.488587 0.500411 0.0690823
0.402085 0.178785 0.197909
0.0297056 1.45641 0.64536
0.494769 0.412755 0.552623
0.0812958 0.444362 0.606059
0.00651074 0.25492 0.0413181
0.247153 0.0941826 0.441566
0.618113 0.163852 0.692866
0.391508 0.671608 0.45954
0.304188 0.0612759 0.489802
0.368164 0.60049 0.335634
0.480003 0.625836 0.438674
0.0083408 0.171541 1.45465
0.627719 0.524685 0.649611
0.281716 0.316562 0.275075
0.100776 0.548165 0.056662
0.595845 0.366094 0.273444
0.562657 0.707104 0.432839
0.670443 0.0473489 0.632598
0.243367 0.248797 0.509816
0.704583 0.426611 0.688717
0.494171 0.55096 0.528539
0.116868 0.0862886 0.527596
1.37628 0.55004 0.563998
0.357243 0.130443 0.104791
0.023588 0.318149 0.181595
0.274882 0.613728 0.402639
0.423349 0.323871 0.165649
0.306657 0.433394 0.670497
0.389878 0.451097 0.648605
0.497237 0.126749 0.36643
0.505239 0.0834571 1.43962
0.0139276 0.0730716 0.559141
0.512804 0.468874 0.244662
0.351122 0.594898 0.697163
0.57937 0.447615 0.69183
0.253157 0.597761 0.0981739
0.448354 0.606021 0.201957
0.551781 0.431322 0.405196
0.0453096 0.625117 0.633761
0.720894 0.401303 0.533195
0.660917 0.432054 0.0359819
0.509211 0.658872 0.24727
0.341103 0.597827 0.115204
0.576186 0.211253 0.0452022
0.508226 0.722956 0.139142
0.672986 0.58312 0.24412
0.620231 0.0605137 0.504063
0.161077 0.353684 0.253189
0.16831 0.382549 0.430862
0.544303 0.24269 0.696972
0.154947 0.697672 0.196233
0.373691 0.550356 0.0440682
0.493392 0.48084 0.621992
0.284406 0.00954821 0.630006
0.276759 0.671425 0.709457
0.335871 0.717464 0.52603
0.551687 0.122284 0.541689
0.165453 0.307093 0.412162
0.508218 0.182647 0.428381
0.267687 0.19752 0.263686
0.523442 0.650761 0.339532
0.584086 0.39609 0.571337
0.607196 0.525477 0.0517191
0.735475 0.0628382 0.44709
0.174151 0.0816479 0.0853503
0.339387 0.688847 0.385726
0.451945 0.282329 0.476909
0.453891 0.245291 0.637914
0.467034 0.723901 0.474115
0.533272 0.128475 0.144342
0.593726 0.61195 0.611167
0.639482 0.210604 0.26239
0.521707 0.159993 0.280641
0.716227 0.484269 0.421045
0.687407 0.617878 0.593944
0.197547 0.359804 0.130292
0.507528 0.312836 0.689514
0.573082 0.278729 0.271103
0.222596 0.688718 0.634242
0.0890228 0.720039 0.0711344
0.577979 0.31855 0.734148
0.37682 0.250315 0.107006
0.703293 0.164479 0.600214
0.129383 0.55801 0.395334
0.470823 0.556441 0.292176
0.472605 0.433339 0.397169
0.190257 0.333591 0.691552
0.408479 0.151372 0.570731
0.063642 0.0510116 1.44635
0.633248 0.683197 0.181369
0.662544 0.547362 0.402535
0.643886 0.351148 0.0505316
0.444926 0.528052 0.402613
0.336239 0.389851 0.45954
0.406861 0.184788 0.443895
0.304251 0.324201 0.52794
0.724913 0.269925 0.259075
0.0117702 0.526262 0.675061
0.181987 0.473965 0.0642279
0.422233 0.227857 0.017345
0.458969 0.416927 0.167046
0.54074 0.551519 0.689051
0.371399 0.0254373 0.0656391
0.165708 0.710472 0.393792
0.662088 0.350158 0.401366
0.389438 0.0881142 0.224042
0.4074 0.636777 0.687304
0.367527 0.523681 0.500026
0.125113 0.491376 0.462612
0.177369 0.634004 0.429
0.723394 0.609371 0.028621
0.526787 0.304905 0.343747
0.0694895 0.404079 0.438703
0.368822 0.370322 0.700159
0.691603 1.44679 0.479102
0.132744 0.523461 0.301574
0.505458 0.664887 0.092795
0.0436725 0.486518 0.507768
0.201586 0.25804 0.607547
0.281622 0.161364 0.0305326
0.353747 0.37846 0.134817
0.383627 0.382505 0.260639
0.218172 0.26816 0.198393
0.204795 0.0658456 0.511978
0.353341 0.30786 0.627639
0.148727 0.68658 0.497285
0.192386 0.433045 0.671196
0.144183 0.766686 0.45392
0.131571 0.115548 0.418618
0.530256 0.326333 0.197057
0.0104474 0.1011 0.6626
0.62233 0.374111 0.479446
0.551378 0.361649 1.38057
0.242451 0.281612 0.678794
0.488074 0.139084 0.637415
0.0835484 0.295799 0.434283
0.657566 0.66648 0.0512095
0.578341 0.681301 0.114934
0.177081 0.431774 0.240886
0.365693 0.29882 0.434577
0.206928 0.626176 0.507211
0.749393 0.0859887 0.274647
0.489879 0.00124841 0.285124
0.513153 0.364085 0.465572
0.530127 0.0176813 0.529671
0.0573818 0.564274 0.253655
0.67328 0.674903 0.249927
0.401388 0.0703456 0.494697
0.334367 0.467073 0.462504
0.590389 0.492725 0.431741
0.372526 0.268551 0.223985
0.535488 0.501832 0.363137
0.647672 0.260314 0.00247902
0.679813 0.108674 0.157002
0.509376 0.383936 1.44491
0.251688 0.154 0.137122
0.2436 0.689905 0.0768005
0.0751505 0.319646 0.269132
0.251271 0.194226 0.661943
0.413097 0.0550967 0.151805
0.531869 1.42711 0.648767
0.0017358 0.255951 0.561062
0.354565 0.445377 0.0406066
0.614494 0.302817 0.333051
0.583999 0.165653 0.466773
0.560477 0.439495 0.30946
0.0288624 0.569549 0.380591
0.317865 0.227819 0.482252
0.647561 0.595579 0.703263
0.18332 0.165978 0.491296
0.0884878 0.471257 0.116925
0.362556 0.334945 0.0484737
0.581929 0.192166 0.362688
0.35791 0.0587685 0.583259
0.105445 0.0260022 0.246608
0.643556 0.0872434 0.073391
0.578589 0.585942 0.411108
0.010292 0.406415 0.11268
0.0989388 0.398225 0.182734
0.110461 0.0789561 0.633634
0.277668 0.576465 0.664326
0.150874 0.603568 0.23649
0.603854 0.134743 0.13123
0.628009 0.702447 0.683337
0.496115 0.38135 0.284974
0.0538951 0.725205 0.302703
0.393437 0.0165454 0.413589
0.0931987 0.684738 0.581576
0.653744 0.472607 0.500833
0.509196 0.238173 0.259469
0.657159 0.265308 0.400615
0.73031 0.0117018 0.369851
0.432116 0.312184 0.72433
0.289322 0.315532 0.174109
0.0785308 0.142571 0.470632
0.587466 0.128599 0.216829
0.442013 0.352133 0.36436
0.682141 0.180363 0.380437
0.632206 0.121842 0.413127
0.266251 0.363192 0.0205126
0.635491 0.428299 0.321922
0.643126 0.428753 0.405371
0.414681 0.62309 0.536218
0.502072 0.164521 0.201023
0.570901 0.080083 0.389451
0.244888 0.715931 0.457947
0.0963647 0.299169 0.0804481
0.182167 0.72547 0.0312703
0.29888 0.23221 0.171808
0.160387 0.374072 0.0302511
0.302277 0.235548 0.556859
0.653533 0.0502106 0.235819
0.252333 0.664556 0.174814
0.203589 0.533934 0.646676
0.262699 0.502563 1.44899
0.541828 1.45699 0.0656335
0.128688 0.142855 0.288228
0.454963 0.149867 0.0490961
0.617604 0.465629 0.234636
0.5783 0.712439 0.252095
0.200478 0.121643 1.43743
0.17275 0.00652654 0.576059
0.15312 0.243023 0.688453
0.0736538 0.485897 0.372528
0.126052 0.295312 0.190601
0.133656 0.684819 0.678822
0.306191 0.102045 0.653479
0.0488223 0.27232 0.685162
0.411817 0.379739 0.43976
0.187803 0.323087 0.498627
0.557536 0.071247 0.299132
0.254857 0.673895 0.558033
0.193283 0.552053 0.148324
0.519499 0.660606 0.530607
0.022778 0.332778 0.384214
0.248995 0.580859 0.575834
[...]
POINT_DATA 3832
SCALARS radius double 1
LOOKUP_TABLE default
0.0520852
0.0408204
0.060126
0.0444348
0.0357519
0.0553226
0.0465769
0.0537883
0.0531857
0.0571894
0.0558385
0.0569367
0.0372537
0.0477561
0.0590524
0.0509403
0.0398024
0.0354895
0.0504805
0.0538822
0.0407257
0.0469342
0.0404836
0.0632457
0.0632236
0.0614464
0.0576992
0.0549664
0.0445078
0.0539039
0.0533771
0.050797
0.0412479
0.0519206
0.0454244
0.0403042
0.0438752
0.0455038
0.0378994
0.0357385
0.0525019
0.062122
0.043667
0.0369823
0.0424648
0.0409655
0.0366021
0.054221
0.0567228
0.0471228
0.0468965
0.0373823
0.0609145
0.0406709
0.0403166
0.0564892
0.0364364
0.0518387
0.0412204
0.0449425
0.0477394
0.0406837
0.0617666
0.0434327
0.064153
0.0371344
0.0556498
0.0616436
0.045371
0.064621
0.0520632
0.0385978
0.0463247
0.0601352
0.0593965
0.0370221
0.0519719
0.0532595
0.036185
0.0395951
0.0639988
0.0500497
0.0519057
0.0492632
0.0461826
0.0360261
0.0397041
0.0623991
0.0373694
0.0618808
0.0445012
0.0645734
0.0529398
0.0576209
0.0549625
0.0601389
0.0477681
0.0403116
0.0352848
0.0388909
0.045219
0.0442337
0.0558165
0.0556986
0.0593294
0.0580766
0.0640356
0.0609087
0.0430453
0.0492247
0.0455247
0.0484126
0.0458988
0.0569548
0.0555717
0.0458351
0.0358492
0.0554986
0.0461242
0.0359878
0.0368659
0.0532673
0.0440327
0.0570118
0.0572463
0.0462824
0.0374189
0.0587013
0.0469412
0.0368912
0.0606348
0.0417205
0.0552507
0.0393722
0.0645479
0.0433616
0.0451795
0.0646999
0.0470822
0.0367252
0.0584162
0.0547251
0.0491303
0.0422845
0.0583399
0.0403988
0.0504033
0.0596096
0.0380654
0.0412228
0.0403693
0.0611914
0.0469793
0.0434018
0.0563049
0.0552292
0.0574972
0.038247
0.0495834
0.0383857
0.0451814
0.0460571
0.0606538
0.0467302
0.0356716
0.0582659
0.0449583
0.0438672
0.0362787
0.0490493
0.048756
0.0470897
0.0373669
0.0447827
0.0367697
0.0386889
0.0542721
0.0642251
0.0426025
0.0397378
0.0433277
0.0483104
0.0470064
0.0556969
0.042533
0.0564288
0.0511403
0.0358625
0.0381758
0.0378031
0.0622676
0.0564306
0.0534028
0.0618536
0.0519298
0.0613092
0.0430537
0.0408366
0.0647617
0.0459816
0.0370762
0.0591706
0.0557047
0.0451418
0.0473154
0.0362994
0.0633464
0.0362488
0.0399849
0.0380857
0.0617072
0.0477559
0.0620852
0.0445352
0.050456
0.0616015
0.0434812
0.0376041
0.0540738
0.0416795
0.0441787
0.0378803
0.0368898
0.0554002
0.0421897
0.064945
0.0579113
0.0384042
0.0632851
0.0632943
0.0410172
0.0612715
0.052964
0.0567066
0.0394733
0.0350205
0.0394087
0.0353767
0.0405093
0.0445586
0.0456745
0.0453129
0.0500514
0.0617758
0.0424102
0.0406148
0.0495978
0.0356913
0.0488743
0.0350032
0.0541776
0.0554006
0.0639605
0.0459964
0.0418739
0.0546553
0.0451734
0.064161
0.0460914
0.0354233
0.0580741
0.0466199
0.0485776
0.0401022
0.0372373
0.0474932
0.0477198
0.0447365
0.0425312
0.038546
0.05683
0.0385268
0.057068
0.0461871
0.0620411
0.0353489
0.0487305
0.0361738
0.0573488
0.0352918
0.0411593
0.0564685
0.0473292
0.042604
0.0490815
0.0399074
0.0568462
0.0450441
0.0464385
0.052352
0.043646
0.0401453
0.057187
0.0600334
0.0385761
0.0459316
0.0389661
0.0519335
0.0412629
0.0489803
0.0630593
0.0441
0.0418379
0.0616003
0.0420196
0.0425288
0.0444991
0.0552569
0.0576599
0.054783
0.0600907
0.0469813
0.0542274
0.0357328
0.061661
0.0511896
0.0392993
0.0403635
0.0436053
0.0549385
0.036816
0.0500084
0.0409279
0.0468946
0.0429333
0.0421893
0.0517911
0.0493462
0.0410236
0.0385114
0.0624698
0.0378985
0.0459671
0.0465825
0.0370675
0.0393965
0.0629225
0.0642104
0.0398354
0.0409843
0.0444581
0.0353694
0.0526025
0.0568005
0.0403822
0.0473774
0.0358904
0.0557307
0.0482834
0.0587718
0.0502024
0.0480634
0.0514482
0.0605664
0.0435495
0.0504333
0.0617433
0.0553953
0.0478375
0.0365914
0.0525595
0.0524283
0.0463239
0.0455416
0.0515108
0.0394797
0.046226
0.0487287
0.049129
0.0363429
0.0385122
0.0553436
0.0518649
0.0390694
0.0612973
0.054296
0.0399721
0.0453108
0.06123
0.0526817
0.0558267
0.0571528
0.0647305
0.0408194
0.0580799
0.0496156
0.04352
0.0365911
0.0426541
0.0369702
0.0527522
0.0647739
0.0417199
0.0634163
0.0596252
0.047732
0.0466614
0.0393834
0.0599108
0.0403408
0.0621555
0.035369
0.0404031
0.037808
0.0383674
0.037993
0.0407767
0.0434688
0.0614524
0.0641309
0.0585803
0.0404942
0.0534554
0.0364077
0.0530441
0.0431646
0.0391405
0.062973
0.0400398
0.0375781
0.0556331
0.0489774
0.0427552
0.042028
0.0528464
0.0354931
0.057426
0.0441045
0.0459156
0.0575668
0.0473588
0.0490753
0.0563479
0.0511813
0.0374424
0.0635185
0.0405005
0.0374717
0.0458178
0.039971
0.0502893
0.036337
0.0416627
0.0477589
0.0396481
0.043972
0.0451575
0.0529738
0.0508996
0.042016
0.0621942
0.0536019
0.0498312
0.045245
0.0542566
0.0442437
0.0460123
0.048474
0.0392863
0.0628587
0.0381348
0.0432582
0.055483
0.0458243
0.0649241
0.0443362
0.0420139
0.0370987
0.0391381
0.046421
0.0610388
0.0593076
0.05826
0.0579211
0.0537903
0.0493
0.0355082
0.0524691
0.0426964
0.0520852
0.0408204
0.060126
0.0444348
0.0357519
0.0553226
0.0465769
0.0537883
0.0531857
0.0571894
0.0558385
0.0569367
0.0372537
0.0477561
0.0590524
0.0509403
0.0398024
0.0354895
0.0504805
0.0538822
0.0407257
0.0469342
0.0404836
0.0632457
0.0632236
0.0614464
0.0576992
0.0549664
0.0445078
0.0539039
0.0533771
0.050797
0.0412479
0.0519206
0.0454244
0.0403042
0.0438752
0.0455038
0.0378994
0.0357385
0.0525019
0.062122
0.043667
0.0369823
0.0424648
0.0409655
0.0366021
0.054221
0.0567228
0.0471228
0.0468965
0.0373823
0.0609145
0.0406709
0.0403166
0.0564892
0.0364364
0.0518387
0.0412204
0.0449425
0.0477394
0.0406837
0.0617666
0.0434327
0.064153
0.0371344
0.0556498
0.0616436
0.045371
0.064621
0.0520632
0.0385978
0.0463247
0.0601352
0.0593965
0.0370221
0.0519719
0.0532595
0.036185
0.0395951
0.0639988
0.0500497
0.0519057
0.0492632
0.0461826
0.0360261
0.0397041
0.0623991
0.0373694
0.0618808
0.0445012
0.0645734
0.0529398
0.0576209
0.0549625
0.0601389
0.0477681
0.0403116
0.0352848
0.0388909
0.045219
0.0442337
0.0558165
0.0556986
0.0593294
0.0580766
0.0640356
0.0609087
0.0430453
0.0492247
0.0455247
0.0484126
0.0458988
0.0569548
0.0555717
0.0458351
0.0358492
0.0554986
0.0461242
0.0359878
0.0368659
0.0532673
0.0440327
0.0570118
0.0572463
0.0462824
0.0374189
0.0587013
0.0469412
0.0368912
0.0606348
0.0417205
0.0552507
0.0393722
0.0645479
0.0433616
0.0451795
0.0646999
0.0470822
0.0367252
0.0584162
0.0547251
0.0491303
0.0422845
0.0583399
0.0403988
0.0504033
0.0596096
0.0380654
0.0412228
0.0403693
0.0611914
0.0469793
0.0434018
0.0563049
0.0552292
0.0574972
0.038247
0.0495834
0.0383857
0.0451814
0.0460571
0.0606538
0.0467302
0.0356716
0.0582659
0.0449583
0.0438672
0.0362787
0.0490493
0.048756
0.0470897
0.0373669
0.0447827
0.0367697
0.0386889
0.0542721
0.0642251
0.0426025
0.0397378
0.0433277
0.0483104
0.0470064
0.0556969
0.042533
0.0564288
0.0511403
0.0358625
0.0381758
0.0378031
0.0622676
0.0564306
0.0534028
0.0618536
0.0519298
0.0613092
0.0430537
0.0408366
0.0647617
0.0459816
0.0370762
0.0591706
0.0557047
0.0451418
0.0473154
0.0362994
0.0633464
0.0362488
0.0399849
0.0380857
0.0617072
0.0477559
0.0620852
0.0445352
0.050456
0.0616015
0.0434812
0.0376041
0.0540738
0.0416795
0.0441787
0.0378803
0.0368898
0.0554002
0.0421897
0.064945
0.0579113
0.0384042
0.0632851
0.0632943
0.0410172
0.0612715
0.052964
0.0567066
0.0394733
0.0350205
0.0394087
0.0353767
0.0405093
0.0445586
0.0456745
0.0453129
0.0500514
0.0617758
0.0424102
0.0406148
0.0495978
0.0356913
0.0488743
0.0350032
0.0541776
0.0554006
0.0639605
0.0459964
0.0418739
0.0546553
0.0451734
0.064161
0.0460914
0.0354233
0.0580741
0.0466199
0.0485776
0.0401022
0.0372373
0.0474932
0.0477198
0.0447365
0.0425312
0.038546
0.05683
0.0385268
0.057068
0.0461871
0.0620411
0.0353489
0.0487305
0.0361738
0.0573488
0.0352918
0.0411593
0.0564685
0.0473292
0.042604
0.0490815
0.0399074
0.0568462
0.0450441
0.0464385
0.052352
0.043646
0.0401453
0.057187
0.0600334
0.0385761
0.0459316
0.0389661
0.0519335
0.0412629
0.0489803
0.0630593
0.0441
0.0418379
0.0616003
0.0420196
0.0425288
0.0444991
0.0552569
0.0576599
0.054783
0.0600907
0.0469813
0.0542274
0.0357328
0.061661
0.0511896
0.0392993
0.0403635
0.0436053
0.0549385
0.036816
0.0500084
0.0409279
0.0468946
0.0429333
0.0421893
0.0517911
0.0493462
0.0410236
0.0385114
0.0624698
0.0378985
0.0459671
0.0465825
0.0370675
0.0393965
0.0629225
0.0642104
0.0398354
0.0409843
0.0444581
0.0353694
0.0526025
0.0568005
0.0403822
0.0473774
0.0358904
0.0557307
0.0482834
0.0587718
0.0502024
0.0480634
0.0514482
0.0605664
0.0435495
0.0504333
0.0617433
0.0553953
0.0478375
0.0365914
0.0525595
0.0524283
0.0463239
0.0455416
0.0515108
0.0394797
0.046226
0.0487287
0.049129
0.0363429
0.0385122
0.0553436
0.0518649
0.0390694
0.0612973
0.054296
0.0399721
0.0453108
0.06123
0.0526817
0.0558267
0.0571528
0.0647305
0.0408194
0.0580799
0.0496156
0.04352
0.0365911
0.0426541
0.0369702
0.0527522
0.0647739
0.0417199
0.0634163
0.0596252
0.047732
0.0466614
0.0393834
0.0599108
0.0403408
0.0621555
0.035369
0.0404031
0.037808
0.0383674
0.037993
0.0407767
0.0434688
0.0614524
0.0641309
0.0585803
0.0404942
0.0534554
0.0364077
0.0530441
0.0431646
0.0391405
0.062973
0.0400398
0.0375781
0.0556331
0.0489774
0.0427552
0.042028
0.0528464
0.0354931
0.057426
0.0441045
0.0459156
0.0575668
0.0473588
0.0490753
0.0563479
0.0511813
0.0374424
0.0635185
0.0405005
0.0374717
0.0458178
0.039971
0.0502893
0.036337
0.0416627
0.0477589
0.0396481
0.043972
0.0451575
0.0529738
0.0508996
0.042016
0.0621942
0.0536019
0.0498312
0.045245
0.0542566
0.0442437
0.0460123
0.048474
0.0392863
0.0628587
0.0381348
0.0432582
0.055483
0.0458243
0.0649241
0.0443362
0.0420139
0.0370987
0.0391381
0.046421
0.0610388
0.0593076
0.05826
0.0579211
0.0537903
0.0493
0.0355082
0.0524691
0.0426964
0.0520852
0.0408204
0.060126
0.0444348
0.0357519
0.0553226
0.0465769
0.0537883
0.0531857
0.0571894
0.0558385
0.0569367
0.0372537
0.0477561
0.0590524
0.0509403
0.0398024
0.0354895
0.0504805
0.0538822
0.0407257
0.0469342
0.0404836
0.0632457
0.0632236
0.0614464
0.0576992
0.0549664
0.0445078
0.0539039
0.0533771
0.050797
0.0412479
0.0519206
0.0454244
0.0403042
0.0438752
0.0455038
0.0378994
0.0357385
0.0525019
0.062122
0.043667
0.0369823
0.0424648
0.0409655
0.0366021
0.054221
0.0567228
0.0471228
0.0468965
0.0373823
0.0609145
0.0406709
0.0403166
0.0564892
0.0364364
0.0518387
0.0412204
0.0449425
0.0477394
0.0406837
0.0617666
0.0434327
0.064153
0.0371344
0.0556498
0.0616436
0.045371
0.064621
0.0520632
0.0385978
0.0463247
0.0601352
0.0593965
0.0370221
0.0519719
0.0532595
0.036185
0.0395951
0.0639988
0.0500497
0.0519057
0.0492632
0.0461826
0.0360261
0.0397041
0.0623991
0.0373694
0.0618808
0.0445012
0.0645734
0.0529398
0.0576209
0.0549625
0.0601389
0.0477681
0.0403116
0.0352848
0.0388909
0.045219
0.0442337
0.0558165
0.0556986
0.0593294
0.0580766
0.0640356
0.0609087
0.0430453
0.0492247
0.0455247
0.0484126
0.0458988
0.0569548
0.0555717
0.0458351
0.0358492
0.0554986
0.0461242
0.0359878
0.0368659
0.0532673
0.0440327
0.0570118
0.0572463
0.0462824
0.0374189
0.0587013
0.0469412
0.0368912
0.0606348
0.0417205
0.0552507
0.0393722
0.0645479
0.0433616
0.0451795
0.0646999
0.0470822
0.0367252
0.0584162
0.0547251
0.0491303
0.0422845
0.0583399
0.0403988
0.0504033
0.0596096
0.0380654
0.0412228
0.0403693
0.0611914
0.0469793
0.0434018
0.0563049
0.0552292
0.0574972
0.038247
0.0495834
0.0383857
0.0451814
0.0460571
0.0606538
0.0467302
0.0356716
0.0582659
0.0449583
0.0438672
0.0362787
0.0490493
0.048756
0.0470897
0.0373669
0.0447827
0.0367697
0.0386889
0.0542721
0.0642251
0.0426025
0.0397378
0.0433277
0.0483104
0.0470064
0.0556969
0.042533
0.0564288
0.0511403
0.0358625
0.0381758
0.0378031
0.0622676
0.0564306
0.0534028
0.0618536
0.0519298
0.0613092
0.0430537
0.0408366
0.0647617
0.0459816
0.0370762
0.0591706
0.0557047
0.0451418
0.0473154
0.0362994
0.0633464
0.0362488
0.0399849
0.0380857
0.0617072
0.0477559
0.0620852
0.0445352
0.050456
0.0616015
0.0434812
0.0376041
0.0540738
0.0416795
0.0441787
0.0378803
0.0368898
0.0554002
0.0421897
0.064945
0.0579113
0.0384042
0.0632851
0.0632943
0.0410172
0.0612715
0.052964
0.0567066
0.0394733
0.0350205
0.0394087
0.0353767
0.0405093
0.0445586
0.0456745
0.0453129
0.0500514
0.0617758
0.0424102
0.0406148
0.0495978
0.0356913
0.0488743
0.0350032
0.0541776
0.0554006
0.0639605
0.0459964
0.0418739
0.0546553
0.0451734
0.064161
0.0460914
0.0354233
0.0580741
0.0466199
0.0485776
0.0401022
0.0372373
0.0474932
0.0477198
0.0447365
0.0425312
0.038546
0.05683
0.0385268
0.057068
0.0461871
0.0620411
0.0353489
0.0487305
0.0361738
0.0573488
0.0352918
0.0411593
0.0564685
0.0473292
0.042604
0.0490815
0.0399074
0.0568462
0.0450441
0.0464385
0.052352
0.043646
0.0401453
0.057187
0.0600334
0.0385761
0.0459316
0.0389661
0.0519335
0.0412629
0.0489803
0.0630593
0.0441
0.0418379
0.0616003
0.0420196
0.0425288
0.0444991
0.0552569
0.0576599
0.054783
0.0600907
0.0469813
0.0542274
0.0357328
0.061661
0.0511896
0.0392993
0.0403635
0.0436053
0.0549385
0.036816
0.0500084
0.0409279
0.0468946
0.0429333
0.0421893
0.0517911
0.0493462
0.0410236
0.0385114
0.0624698
0.0378985
0.0459671
0.0465825
0.0370675
0.0393965
0.0629225
0.0642104
0.0398354
0.0409843
0.0444581
0.0353694
0.0526025
0.0568005
0.0403822
0.0473774
0.0358904
0.0557307
0.0482834
0.0587718
0.0502024
0.0480634
0.0514482
0.0605664
0.0435495
0.0504333
0.0617433
0.0553953
0.0478375
0.0365914
0.0525595
0.0524283
0.0463239
0.0455416
0.0515108
0.0394797
0.046226
0.0487287
0.049129
0.0363429
0.0385122
0.0553436
0.0518649
0.0390694
0.0612973
0.054296
0.0399721
0.0453108
0.06123
0.0526817
0.0558267
0.0571528
0.0647305
0.0408194
0.0580799
0.0496156
0.04352
0.0365911
0.0426541
0.0369702
0.0527522
0.0647739
0.0417199
0.0634163
0.0596252
0.047732
0.0466614
0.0393834
0.0599108
0.0403408
0.0621555
0.035369
0.0404031
0.037808
0.0383674
0.037993
0.0407767
0.0434688
0.0614524
0.0641309
0.0585803
0.0404942
0.0534554
0.0364077
0.0530441
0.0431646
0.0391405
0.062973
0.0400398
0.0375781
0.0556331
0.0489774
0.0427552
0.042028
0.0528464
0.0354931
0.057426
0.0441045
0.0459156
0.0575668
0.0473588
0.0490753
0.0563479
0.0511813
0.0374424
0.0635185
0.0405005
0.0374717
0.0458178
0.039971
0.0502893
0.036337
0.0416627
0.0477589
0.0396481
0.043972
0.0451575
0.0529738
0.0508996
0.042016
0.0621942
0.0536019
0.0498312
0.045245
0.0542566
0.0442437
0.0460123
0.048474
0.0392863
0.0628587
0.0381348
0.0432582
0.055483
0.0458243
0.0649241
0.0443362
0.0420139
0.0370987
0.0391381
0.046421
0.0610388
0.0593076
0.05826
0.0579211
0.0537903
0.0493
0.0355082
0.0524691
0.0426964
0.0520852
0.0408204
0.060126
0.0444348
0.0357519
0.0553226
0.0465769
0.0537883
0.0531857
0.0571894
0.0558385
0.0569367
0.0372537
0.0477561
0.0590524
0.0509403
0.0398024
0.0354895
0.0504805
0.0538822
0.0407257
0.0469342
0.0404836
0.0632457
0.0632236
0.0614464
0.0576992
0.0549664
0.0445078
0.0539039
0.0533771
0.050797
0.0412479
0.0519206
0.0454244
0.0403042
0.0438752
0.0455038
0.0378994
0.0357385
0.0525019
0.062122
0.043667
0.0369823
0.0424648
0.0409655
0.0366021
0.054221
0.0567228
0.0471228
0.0468965
0.0373823
0.0609145
0.0406709
0.0403166
0.0564892
0.0364364
0.0518387
0.0412204
0.0449425
0.0477394
0.0406837
0.0617666
0.0434327
0.064153
0.0371344
0.0556498
0.0616436
0.045371
0.064621
0.0520632
0.0385978
0.0463247
0.0601352
0.0593965
0.0370221
0.0519719
0.0532595
0.036185
0.0395951
0.0639988
0.0500497
0.0519057
0.0492632
0.0461826
0.0360261
0.0397041
0.0623991
0.0373694
0.0618808
0.0445012
0.0645734
0.0529398
0.0576209
0.0549625
0.0601389
0.0477681
0.0403116
0.0352848
0.0388909
0.045219
0.0442337
0.0558165
0.0556986
0.0593294
0.0580766
0.0640356
0.0609087
0.0430453
0.0492247
0.0455247
0.0484126
0.0458988
0.0569548
0.0555717
0.0458351
0.0358492
0.0554986
0.0461242
0.0359878
0.0368659
0.0532673
0.0440327
0.0570118
0.0572463
0.0462824
0.0374189
0.0587013
0.0469412
0.0368912
0.0606348
0.0417205
0.0552507
0.0393722
0.0645479
0.0433616
0.0451795
0.0646999
0.0470822
0.0367252
0.0584162
0.0547251
0.0491303
0.0422845
0.0583399
0.0403988
0.0504033
0.0596096
0.0380654
0.0412228
0.0403693
0.0611914
0.0469793
0.0434018
0.0563049
0.0552292
0.0574972
0.038247
0.0495834
0.0383857
0.0451814
0.0460571
0.0606538
0.0467302
0.0356716
0.0582659
0.0449583
0.0438672
0.0362787
0.0490493
0.048756
0.0470897
0.0373669
0.0447827
0.0367697
0.0386889
0.0542721
0.0642251
0.0426025
0.0397378
0.0433277
0.0483104
0.0470064
0.0556969
0.042533
0.0564288
0.0511403
0.0358625
0.0381758
0.0378031
0.0622676
0.0564306
0.0534028
0.0618536
0.0519298
0.0613092
0.0430537
0.0408366
0.0647617
0.0459816
0.0370762
0.0591706
0.0557047
0.0451418
0.0473154
0.0362994
0.0633464
0.0362488
0.0399849
0.0380857
0.0617072
0.0477559
0.0620852
0.0445352
0.050456
0.0616015
0.0434812
0.0376041
0.0540738
0.0416795
0.0441787
0.0378803
0.0368898
0.0554002
0.0421897
0.064945
0.0579113
0.0384042
0.0632851
0.0632943
0.0410172
0.0612715
0.052964
0.0567066
0.0394733
0.0350205
0.0394087
0.0353767
0.0405093
0.0445586
0.0456745
0.0453129
0.0500514
0.0617758
0.0424102
0.0406148
0.0495978
0.0356913
0.0488743
0.0350032
0.0541776
0.0554006
0.0639605
0.0459964
0.0418739
0.0546553
0.0451734
0.064161
0.0460914
0.0354233
0.0580741
0.0466199
0.0485776
0.0401022
0.0372373
0.0474932
0.0477198
0.0447365
0.0425312
0.038546
0.05683
0.0385268
0.057068
0.0461871
0.0620411
0.0353489
0.0487305
0.0361738
0.0573488
0.0352918
0.0411593
0.0564685
0.0473292
0.042604
0.0490815
0.0399074
0.0568462
0.0450441
0.0464385
0.052352
0.043646
0.0401453
0.057187
0.0600334
0.0385761
0.0459316
0.0389661
0.0519335
0.0412629
0.0489803
0.0630593
0.0441
0.0418379
0.0616003
0.0420196
0.0425288
0.0444991
0.0552569
0.0576599
0.054783
0.0600907
0.0469813
0.0542274
0.0357328
0.061661
0.0511896
0.0392993
0.0403635
0.0436053
0.0549385
0.036816
0.0500084
0.0409279
0.0468946
0.0429333
0.0421893
0.0517911
0.0493462
0.0410236
0.0385114
0.0624698
0.0378985
0.0459671
0.0465825
0.0370675
0.0393965
0.0629225
0.0642104
0.0398354
0.0409843
0.0444581
0.0353694
0.0526025
0.0568005
0.0403822
0.0473774
0.0358904
0.0557307
0.0482834
0.0587718
0.0502024
0.0480634
0.0514482
0.0605664
0.0435495
0.0504333
0.0617433
0.0553953
0.0478375
0.0365914
0.0525595
0.0524283
0.0463239
0.0455416
0.0515108
0.0394797
0.046226
0.0487287
0.049129
0.0363429
0.0385122
0.0553436
0.0518649
0.0390694
0.0612973
0.054296
0.0399721
0.0453108
0.06123
0.0526817
0.0558267
0.0571528
0.0647305
0.0408194
0.0580799
0.0496156
0.04352
0.0365911
0.0426541
0.0369702
0.0527522
0.0647739
0.0417199
0.0634163
0.0596252
0.047732
0.0466614
0.0393834
0.0599108
0.0403408
0.0621555
0.035369
0.0404031
0.037808
0.0383674
0.037993
0.0407767
0.0434688
0.0614524
0.0641309
0.0585803
0.0404942
0.0534554
0.0364077
0.0530441
0.0431646
0.0391405
0.062973
0.0400398
0.0375781
0.0556331
0.0489774
0.0427552
0.042028
0.0528464
0.0354931
0.057426
0.0441045
0.0459156
0.0575668
0.0473588
0.0490753
0.0563479
0.0511813
0.0374424
0.0635185
0.0405005
0.0374717
0.0458178
0.039971
0.0502893
0.036337
0.0416627
0.0477589
0.0396481
0.043972
0.0451575
0.0529738
0.0508996
0.042016
0.0621942
0.0536019
0.0498312
0.045245
0.0542566
0.0442437
0.0460123
0.048474
0.0392863
0.0628587
0.0381348
0.0432582
0.055483
0.0458243
0.0649241
0.0443362
0.0420139
0.0370987
0.0391381
0.046421
0.0610388
0.0593076
0.05826
0.0579211
0.0537903
0.0493
0.0355082
0.0524691
0.0426964
0.0520852
0.0408204
0.060126
0.0444348
0.0357519
0.0553226
0.0465769
0.0537883
0.0531857
0.0571894
0.0558385
0.0569367
0.0372537
0.0477561
0.0590524
0.0509403
0.0398024
0.0354895
0.0504805
0.0538822
0.0407257
0.0469342
0.0404836
0.0632457
0.0632236
0.0614464
0.0576992
0.0549664
0.0445078
0.0539039
0.0533771
0.050797
0.0412479
0.0519206
0.0454244
0.0403042
0.0438752
0.0455038
0.0378994
0.0357385
0.0525019
0.062122
0.043667
0.0369823
0.0424648
0.0409655
0.0366021
0.054221
0.0567228
0.0471228
0.0468965
0.0373823
0.0609145
0.0406709
0.0403166
0.0564892
0.0364364
0.0518387
0.0412204
0.0449425
0.0477394
0.0406837
0.0617666
0.0434327
0.064153
0.0371344
0.0556498
0.0616436
0.045371
0.064621
0.0520632
0.0385978
0.0463247
0.0601352
0.0593965
0.0370221
0.0519719
0.0532595
0.036185
0.0395951
0.0639988
0.0500497
0.0519057
0.0492632
0.0461826
0.0360261
0.0397041
0.0623991
0.0373694
0.0618808
0.0445012
0.0645734
0.0529398
0.0576209
0.0549625
0.0601389
0.0477681
0.0403116
0.0352848
0.0388909
0.045219
0.0442337