# vtk DataFile Version 3.0.
comment
ASCII

DATASET POLYDATA
POINTS 12411 double
0.103671 0.663076 0.406042
0.0786333 0.494401 0.526932
0.580793 0.585495 0.151362
0.0327728 0.40248 0.518581
0.186252 0.703147 0.528186
0.176951 0.66748 0.647012
0.408143 0.535065 0.323184
0.114686 0.399299 0.241727
0.0725432 0.307271 0.269422
0.415321 0.442431 0.523427
0.551049 0.635566 0.325972
0.632492 0.561742 0.607768
0.0220362 0.420192 0.591441
0.0643442 0.546155 0.597926
0.224141 0.234277 0.579463
0.106311 0.48165 0.259806
0.108322 0.555317 0.332633
0.714763 0.665116 0.607035
0.070129 0.690767 0.568123
0.297408 0.0771182 0.593826
0.104343 0.609533 0.497946
0.101929 0.616119 0.560082
0.271703 0.159905 0.468333
0.0840819 0.0338653 0.200362
0.0980597 0.00202033 0.128992
0.462701 0.556514 0.438007
0.548233 0.132525 0.250096
-0.00532309 0.546416 0.668576
0.408624 0.17965 0.635546
0.698036 0.235479 0.0945948
0.563412 0.372434 0.370354
0.0660806 0.395473 0.685402
0.0668842 0.171107 0.173972
0.625684 0.324369 0.526578
0.13747 0.394002 0.545665
0.544339 0.205748 0.593851
0.126615 0.125706 0.258793
0.381148 0.465181 0.400186
0.414116 0.732564 0.356471
0.139779 0.0694961 0.105342
0.0839372 0.0921308 0.433281
0.0683386 0.20115 0.448318
0.257045 0.115805 0.366699
0.442778 0.107027 0.339508
0.0415341 0.196609 0.12774
0.105426 0.254105 0.125334
0.038169 0.652557 0.147538
0.530678 0.656813 0.164624
0.0755007 0.451654 0.358766
0.110768 0.394702 0.326414
0.0788056 0.923795 0.350586
0.597534 0.222006 0.618179
0.104686 0.319089 0.0737065
0.295721 0.196846 0.644069
0.0942635 0.471641 0.454665
0.436347 0.472355 0.222531
0.127769 0.478503 0.535949
0.497564 0.410077 0.521745
0.0935707 0.30918 0.715163
0.277346 0.204445 0.2008
0.215334 0.568897 0.276257
0.114119 0.352078 0.672231
0.081362 0.380113 0.465249
0.0541705 0.12434 0.138281
0.0747128 0.216437 0.31134
0.259264 1.39192 0.160908
0.0608481 0.827409 0.351945
0.497046 0.712908 0.668015
0.047956 0.837636 0.400103
0.575143 0.622238 0.423601
0.056287 0.896906 0.318937
0.122304 0.720058 0.0155577
0.0221935 0.214664 0.178854
0.0744615 0.518395 0.638112
0.116009 0.486861 0.614689
0.118046 0.465546 0.666901
0.115658 0.527144 0.434071
0.113967 0.536729 0.379963
0.141434 0.474029 0.418135
0.72432 -0.00362442 0.4829
0.0949522 0.274834 0.677289
0.112309 0.108502 0.636048
0.351083 0.390012 0.502433
0.136544 0.219791 0.454597
0.236465 0.647506 0.05883
0.127445 0.417438 0.678369
0.447552 0.382329 0.147822
0.50969 0.390975 0.432121
0.334577 0.39108 0.068627
0.625071 0.0793845 0.445062
0.171552 0.603504 0.517394
0.172436 0.613806 0.43595
0.177721 0.568436 0.117291
0.0989786 0.614897 0.600607
0.0992765 0.389791 0.621216
0.230859 0.261291 0.625257
0.0898996 0.579745 0.662558
0.0750466 0.923166 1.07878
0.172302 0.64751 0.686776
0.166657 0.602747 0.66072
0.367733 0.549033 0.492914
0.0598331 0.827346 1.08165
0.417592 0.176156 0.530801
0.45183 0.117471 -0.00145952
0.184661 0.235288 0.161696
0.718331 0.754788 -0.0142231
0.744298 0.436487 0.175412
0.180976 0.505005 0.112993
0.0556203 0.518973 0.102656
0.709529 0.384012 0.668024
1.19206 0.117646 0.00250953
0.187293 0.189133 0.134105
0.12727 0.683056 0.463836
0.1454 0.405233 0.11779
0.129374 0.397992 0.0428619
0.162255 0.130598 0.35053
0.151862 0.268448 0.700733
0.157908 0.336414 0.655814
0.884902 0.454864 1.01571
0.0514358 0.0903715 0.678075
0.151016 0.423085 0.432538
0.150896 0.357281 0.437037
0.655146 0.642476 0.608239
0.184191 0.427626 0.478542
0.184325 0.386311 0.565014
0.136964 0.276668 0.576485
0.131333 0.276022 0.646833
0.637475 0.638698 0.0942071
0.14453 0.0434365 0.606114
0.174016 0.0788674 0.546571
0.132989 0.416915 0.198937
0.625833 0.227369 0.750175
0.458641 0.491001 0.602473
0.275655 0.500332 0.668153
0.160239 0.739212 0.18926
0.162757 0.743549 0.146361
0.534129 0.482896 0.0463908
0.0258104 0.107784 0.267331
0.0796649 0.200173 1.08051
0.175932 0.562167 0.366226
0.178494 0.70721 0.267111
0.0623126 0.102181 1.08208
0.153786 0.610602 0.566532
0.70584 0.231462 0.661276
0.0436031 0.158752 0.417606
0.112999 0.241727 0.3152
0.111863 0.500658 0.0939824
0.184961 0.0700868 0.0679821
0.0505481 0.113205 1.12869
0.211259 0.515496 0.538159
0.0596688 0.173266 1.04713
0.212315 0.494203 0.618038
0.171757 0.180038 0.675327
0.195087 0.122559 0.577704
0.214376 0.10637 0.632073
0.11406 1.01475 0.369912
0.193677 0.611334 0.588614
0.230365 0.1923 0.699405
0.0293746 0.285875 0.518577
0.0918978 1.08222 0.402493
0.301774 0.565643 0.685713
0.165876 0.488612 0.301967
0.587676 0.232156 0.675609
0.176622 0.316047 0.0317409
0.0799771 0.989121 0.351688
0.603396 0.275291 0.464303
0.47628 0.194846 0.17531
0.580433 0.460481 0.520507
0.332622 0.052591 0.332782
0.70949 0.546209 0.518244
0.0754309 0.704097 0.499186
0.174403 0.657677 0.522605
0.203265 0.155478 0.508555
0.211593 0.199222 0.537477
0.0813738 0.992827 0.400917
0.175673 0.676368 0.455841
0.0616989 1.01558 0.319413
0.692778 0.226103 0.966851
0.0630836 1.09313 0.344434
0.0943183 0.556195 0.07635
0.702276 0.42573 0.180383
0.196216 0.507037 0.702824
0.178949 0.414082 0.661455
0.21168 0.473768 0.667529
0.0682676 0.167201 0.65192
0.164824 0.424761 0.160079
0.652824 0.601618 0.566004
0.11896 0.672438 0.507347
0.454344 0.197891 0.261219
0.210431 0.0506838 0.647455
0.0905621 1.08012 1.12831
0.245254 0.680063 0.365628
0.223932 0.671728 0.456674
0.250199 0.626657 0.418757
0.281682 0.278868 0.100613
0.484587 0.687226 0.316709
0.208886 0.571844 0.666222
0.0776202 0.987793 1.0801
0.474804 0.492929 0.541106
0.212345 0.691822 0.0693915
0.0606972 1.01532 1.0463
0.0631845 1.0917 1.07207
0.644436 0.189393 0.488247
0.16829 0.596871 0.208692
0.107618 0.0747441 0.338834
0.167873 0.562854 0.257287
0.223715 0.634346 0.133054
0.41892 0.49641 0.194348
0.23432 0.576658 0.12391
0.715657 0.504888 0.49582
0.274294 0.104852 0.254348
0.0202875 0.51829 0.322618
0.279827 0.60041 0.31116
0.113165 0.293932 1.10015
0.261357 0.584003 0.247906
0.506161 0.440988 0.43539
-0.0237349 0.56291 0.332578
0.148249 0.619273 0.285065
0.521834 0.0501182 0.327105
0.245919 0.42583 0.353371
0.179441 0.689465 0.595722
0.609462 0.0302224 0.362497
0.231941 0.695007 0.519242
0.257655 0.675687 0.559905
0.693677 0.718455 0.0842329
0.243429 0.116881 0.474504
0.373067 0.450691 0.536527
0.184553 0.630362 0.303498
0.19536 0.26752 0.311977
0.2039 0.227877 0.261838
0.732809 0.2589 -0.0623964
0.155895 0.195935 0.272927
0.647314 0.179581 0.168734
0.098084 0.275273 0.447819
0.0907575 0.358769 1.13053
0.237402 0.64966 0.674476
0.622191 0.157552 0.464988
0.257902 0.1507 0.51171
0.0795855 0.266138 1.08191
0.610066 0.39619 0.110204
0.677777 0.198109 0.200137
0.0808297 0.271506 1.13106
0.164829 0.292326 0.398381
0.216001 0.295509 0.391257
0.0630075 0.292721 1.04805
0.0823941 0.61044 0.0944167
0.225861 0.409553 0.591108
0.0705154 0.638966 0.584076
0.205296 0.317102 0.601945
0.417776 0.566508 0.36083
0.0344461 0.538115 0.631658
0.00269981 0.550359 0.386034
0.27374 0.57186 0.523144
0.269157 0.632473 0.0289967
0.286578 0.519698 0.54703
0.272754 0.500744 0.453308
0.652666 0.0927544 0.24163
0.226703 0.32409 0.209356
0.210642 0.0797528 0.275152
0.0634796 0.370785 1.07436
0.0710041 0.743183 0.8162
0.636658 0.317783 0.601156
0.670657 0.094995 0.451816
0.2207 0.107824 0.080636
0.659536 0.554534 0.195472
0.074316 0.200196 0.351919
0.352723 0.396479 0.17414
0.249017 0.509954 0.187186
0.257157 0.437076 0.177482
0.210227 0.0327388 0.427526
0.117813 0.614336 0.369076
0.0480154 0.739608 0.782852
0.260517 0.574504 0.40108
0.069081 0.0213203 0.817984
0.25976 0.513394 0.391283
0.269628 0.208163 0.58378
0.24513 0.322688 0.159004
0.2558 0.248844 0.220452
0.261965 0.311219 0.237623
0.06967 0.018855 0.0897655
0.278888 0.295062 0.00302189
0.415245 0.463414 0.320222
0.341502 0.599052 0.456468
0.265889 0.505637 0.0668004
0.0598161 0.370634 0.345658
0.0567982 0.293913 0.319604
0.239575 0.531954 0.243168
0.244612 0.509186 0.289858
0.0643305 0.743827 0.0863617
0.237051 0.606329 0.648188
0.447318 0.349747 0.645086
0.541016 0.504704 0.615954
0.0430393 0.317019 0.623527
0.100876 1.0303 1.28347
0.248575 0.464958 0.607595
0.647552 0.14633 0.494496
0.276829 0.499252 0.620236
0.142131 0.455752 1.01742
0.106308 0.423691 0.142285
0.284363 0.654755 0.068483
0.4089 0.232161 0.645669
0.29165 0.624147 1.33895
0.394342 0.549715 0.633102
0.640463 0.588007 0.235837
0.22478 0.374359 0.35015
0.0744708 0.987882 1.26743
0.257594 0.11009 0.158101
0.0984121 0.422501 0.537957
0.0335885 0.117357 0.507999
0.255276 0.216638 0.666073
0.0757243 1.07214 1.30068
0.310094 0.149059 0.6559
0.30477 0.0764304 0.296564
0.51463 0.67661 0.439406
0.12811 0.642252 0.345255
0.265774 0.383632 0.156659
0.62238 0.294904 0.277349
0.280189 0.33446 0.117273
0.0640766 0.656471 0.244177
1.47741 0.261338 -0.0599722
0.0948162 0.126507 0.0342892
0.0457209 1.04176 1.3525
0.307095 0.105833 0.635552
0.297323 0.0324279 0.628466
0.707537 0.291559 0.137838
0.258768 0.66071 0.509278
0.25587 0.709356 0.482354
0.632683 0.0895809 0.0699922
0.291202 0.0867063 0.398858
0.307257 0.13616 0.389719
0.301537 0.16732 0.432477
0.0969211 0.269731 1.3209
0.232883 0.30616 0.103494
0.0737539 0.380016 0.5322
0.0791288 0.260371 1.27002
0.330928 0.651952 0.698084
0.0765838 0.348874 1.30259
0.337127 0.606156 0.64342
0.650378 0.641433 0.67335
0.262829 0.27883 0.655121
0.297664 0.588943 0.175081
0.048679 0.315713 1.3538
0.731816 0.995504 -0.051336
0.338652 0.243216 0.543385
0.631368 0.206209 0.222343
0.295229 0.602147 0.0588863
0.35484 0.122544 0.406819
0.436215 0.325151 0.080305
0.245085 0.251131 0.388007
0.254816 0.231647 0.346893
0.277877 0.270504 0.322773
0.247988 0.304385 0.576838
0.53148 0.328168 0.529479
0.635339 0.162185 0.535848
0.289171 0.235335 0.278606
0.264331 0.211092 0.385085
0.276942 0.263942 0.434862
0.603164 0.53497 0.0201927
0.078818 0.187007 0.0722314
0.0626392 0.293147 0.468189
0.104449 1.0308 0.551925
0.0892059 0.131787 0.0791126
0.098348 0.992709 0.585952
0.338501 0.559046 0.371329
0.663893 0.248736 0.672807
0.315181 0.647594 0.424771
0.32938 0.565455 0.415694
0.181489 0.461936 0.334144
[...]
POINT_DATA 12411

VECTORS nn double
0.0395557 -0.408748 -0.91179
-0.408439 0.760016 0.505522
-0.198865 -0.542441 -0.816217
0.452673 -0.718301 -0.528328
0.613956 0.298223 0.730836
-0.673484 -0.0330307 -0.738463
-0.329873 0.135783 -0.934209
-0.363926 -0.930343 0.0449305
-0.418278 -0.778098 0.468623
0.268548 -0.658806 -0.702749
-0.482238 -0.660635 0.575333
0.0643244 0.251286 -0.965773
0.242543 -0.371674 0.89612
-0.115761 -0.299329 -0.947102
-0.206267 0.963446 0.170956
-0.533117 0.739418 0.411153
0.563453 0.405231 0.719937
0.502049 0.1753 0.846886
0.0871671 0.684473 0.723809
0.656737 0.0507583 -0.75241
0.643778 -0.639462 -0.420284
0.60509 -0.532812 0.591589
-0.191832 -0.543036 -0.817504
-0.0723034 0.814575 0.575534
0.229425 0.127753 -0.964906
0.787128 0.534683 0.30748
0.0987995 -0.375417 -0.921575
-0.174297 -0.643637 -0.745219
-0.206326 0.293266 0.933501
-0.403483 -0.538866 -0.739476
-0.285923 0.853664 -0.435322
-0.827954 0.130953 0.545292
0.954247 0.218735 0.203883
-0.12432 -0.303807 -0.944588
0.819282 0.092867 -0.565821
-0.592984 -0.615718 0.518904
0.728473 0.602513 0.326043
0.257928 0.17716 0.949783
-0.0650775 -0.222512 -0.972756
0.847943 -0.475678 -0.23393
-0.945987 -0.225456 -0.232976
0.631674 0.634406 -0.445551
0.0659137 0.232486 0.970364
-0.112523 0.157865 0.981029
0.539898 0.635594 -0.551843
0.710692 0.489736 0.50505
-0.209642 0.567113 -0.796513
-0.282059 -0.512157 -0.811257
0.232062 0.651924 0.721902
-0.898087 0.426196 -0.108612
0.353081 0.875434 -0.330073
0.245218 -0.358677 0.900677
0.800428 -0.37452 -0.468027
0.474869 0.511542 -0.716117
-0.0947237 0.303587 -0.948084
0.384977 0.859116 -0.337214
0.57836 0.440659 0.686527
-0.385607 -0.0744169 0.919657
0.752413 -0.0276824 -0.65811
0.434091 0.0473453 -0.899624
0.365307 0.925425 0.100697
0.329071 -0.916107 0.22904
0.675548 0.198713 -0.710034
0.746807 -0.545991 -0.379702
0.366722 0.447293 0.815747
-0.0445519 0.188164 -0.981127
-0.0122809 0.952615 0.303931
-0.751855 -0.656739 -0.0583722
-0.23205 -0.758614 0.608816
-0.0436767 0.99674 -0.0678294
0.0740775 -0.364236 0.928356
0.937435 -0.162478 0.307924
0.224106 0.932223 0.284142
-0.135982 0.989269 -0.053443
-0.766586 -0.308915 0.562955
-0.80734 0.153801 -0.569691
0.466028 0.661041 0.588084
0.436869 0.827898 -0.351752
-0.913653 0.261365 -0.311329
-0.929833 -0.0876686 -0.357385
-0.722499 -0.680215 -0.123707
0.832702 0.536281 -0.137878
-0.339728 0.864616 0.370168
0.780444 -0.247298 0.574239
0.228055 0.475414 0.849689
0.649644 0.660433 0.37655
-0.977649 0.101699 0.184009
0.142195 0.457315 0.877863
-0.134841 0.370755 0.91889
-0.789804 0.221398 0.572008
-0.416662 -0.544853 -0.727687
0.431168 0.708414 -0.558788
0.365345 0.469251 0.803944
0.686415 -0.498795 -0.529186
-0.0291112 -0.00576657 -0.99956
-0.357785 0.349707 -0.865849
0.521097 0.537617 0.662893
0.410499 0.859009 -0.305931
-0.79293 -0.54308 0.276272
-0.7024 0.170353 0.691097
-0.435381 -0.872669 0.221115
-0.121531 0.960268 0.25123
0.0431976 -0.229779 0.972284
0.0910509 -0.211616 -0.973103
-0.593191 0.799642 -0.0932557
0.311559 0.284513 -0.906633
0.619667 -0.0357408 0.784051
-0.417433 0.530557 -0.737739
-0.289206 0.912464 -0.289429
0.0556758 -0.934164 0.352473
0.0523709 -0.177186 -0.982783
-0.529787 -0.340748 -0.77667
0.698018 0.1486 0.700492
-0.257567 -0.322404 0.910887
-0.592375 -0.473967 -0.651496
-0.218067 -0.92513 -0.310776
0.45237 -0.815473 0.36106
-0.575524 -0.589468 0.566833
0.115503 0.254525 0.960144
-0.556833 0.122486 0.821544
-0.737679 -0.673515 -0.0469781
-0.735692 0.663021 -0.138418
-0.459542 -0.1899 0.867617
-0.128873 -0.59004 0.797022
-0.131595 0.24919 -0.959472
-0.091846 -0.671174 0.735588
-0.027335 0.65728 0.75315
-0.784031 0.615488 -0.0804423
-0.262359 0.291673 -0.919834
0.859944 0.424758 -0.28298
0.00739554 -0.57123 -0.820757
-0.307651 -0.951379 -0.0151164
-0.656596 0.00908964 0.754188
-0.743836 -0.33809 -0.576544
-0.189954 0.875644 -0.444033
-0.250719 0.77429 0.581046
-0.56952 -0.366399 0.735798
-0.827006 0.326132 0.457929
0.346202 0.891511 -0.292152
-0.967279 0.250525 -0.0401058
0.135184 0.30559 0.942518
-0.0173231 0.964837 0.262276
-0.828084 -0.379606 0.412525
0.560557 0.434107 -0.705214
0.20417 -0.0975377 -0.974064
-0.660138 -0.230281 0.714974
-0.671781 -0.598085 0.437041
-0.3809 -0.492272 0.782677
-0.205583 -0.75656 0.620767
0.744772 0.145677 -0.651225
0.0327346 -0.381187 0.923918
0.763727 -0.192265 0.616243
0.128891 0.620856 0.773256
0.505973 -0.308727 -0.805406
-0.81796 0.570554 -0.0735494
0.894561 -0.443876 -0.0522906
0.0970481 -0.363443 0.926548
-0.822375 0.421541 0.382103
-0.222203 -0.296453 -0.928839
0.522589 0.692847 0.496853
-0.228449 0.946041 -0.22982
-0.564321 -0.58315 0.584361
0.503506 -0.62498 -0.596558
-0.822784 -0.306049 0.478915
0.321427 -0.876091 -0.359372
0.378444 0.80326 0.459949
-0.19399 0.167411 -0.966613
-0.106563 0.793033 -0.599785
-0.313082 -0.0455627 0.948632
-0.639899 -0.741458 0.201915
0.173279 0.899881 -0.400235
-0.350662 0.71313 -0.607027
0.368004 -0.859587 0.354518
-0.511528 0.106795 -0.852604
0.344626 -0.812877 0.469536
0.378317 -0.296884 -0.876776
0.0134924 -0.430131 -0.902666
-0.00161631 -0.0108795 0.99994
0.0368088 0.875753 -0.481354
-0.947733 0.276461 0.159285
-0.340133 -0.28137 0.897296
-0.514699 -0.856551 -0.0374826
-0.221972 0.716052 0.661814
0.775476 0.292881 -0.559336
-0.305308 0.135602 -0.942549
-0.67274 -0.739836 0.00803242
-0.49625 -0.848118 0.185558
-0.883221 -0.385003 0.267756
-0.628779 0.227154 0.743666
-0.886281 -0.418042 0.199368
0.559685 0.681163 0.471984
-0.739086 -0.356633 0.571458
-0.396266 -0.222596 -0.890744
-0.81813 0.50115 -0.281977
0.864928 0.445936 0.230305
0.227713 0.220964 0.948326
-0.244517 0.523401 -0.816249
0.341301 -0.875853 -0.341167
-0.200617 0.0635323 -0.977608
0.673462 -0.342597 0.655039
0.0558806 -0.411141 -0.909857
0.0976713 0.874317 -0.475426
-0.740849 -0.566261 0.361236
0.535705 -0.0430196 -0.843308
0.959049 0.276972 -0.0592665
0.525689 -0.811429 0.255408
-0.463076 -0.717864 0.519838
-0.872679 -0.18592 -0.451514
-0.654245 0.321136 0.684715
0.762773 -0.0684235 -0.643036
-0.357555 -0.0466151 0.932728
0.806156 0.170155 -0.566709
-0.773714 0.36809 -0.515632
0.913118 -0.407057 -0.0228167
0.448873 -0.659619 -0.60284
-0.212668 0.544642 -0.811257
0.0689232 0.91446 -0.398764
0.0823463 0.46291 0.882572
0.608041 -0.093393 -0.788393
0.596727 -0.771041 0.222288
0.730858 0.532813 -0.426564
0.777349 -0.516124 -0.359646
-0.168822 0.437319 0.883318
-0.6103 0.769658 0.187513
-0.143595 -0.386302 0.911126
-0.305768 -0.213672 0.92782
-0.815626 -0.447255 -0.367039
-0.910362 0.161068 0.38118
0.723755 0.203169 0.65947
-0.867621 0.462598 0.182313
-0.107139 -0.249995 -0.962301
-0.0612193 0.998117 -0.00393686
0.0396233 -0.509243 0.85971
-0.0149267 0.900626 0.434338
0.538153 0.685861 0.489883
0.871381 -0.489139 -0.0379278
0.175543 -0.2436 -0.953857
-0.547765 -0.780252 0.301929
0.349257 -0.876808 -0.330494
0.578717 0.229997 0.782424
-0.467175 -0.817378 0.337106
0.369571 -0.784865 0.497397
-0.50868 -0.39268 -0.76619
0.322829 -0.341317 -0.882771
0.0696646 -0.428276 -0.900958
0.746194 0.648894 0.148764
-0.566161 -0.639325 0.520313
0.0933252 -0.160618 0.982595
0.221022 -0.914563 -0.338709
-0.0668519 0.99338 0.0934188
0.859799 0.499265 0.107147
0.509971 0.704673 0.493321
-0.358991 -0.84986 -0.385829
0.977601 0.130459 0.165155
-0.585564 0.0714041 -0.807475
0.341559 -0.406172 -0.847562
-0.0493584 0.934387 -0.352823
-0.642522 0.693831 0.325213
-0.720142 -0.378462 -0.581517
0.0775151 0.88612 -0.456927
0.978677 -0.198839 0.0515243
0.143278 -0.463945 0.8742
0.313437 0.599756 0.736241
0.17643 0.0962654 0.979594
-0.359944 -0.922832 -0.137193
0.378653 0.884945 -0.271098
0.921575 -0.181682 -0.343062
0.660898 0.609538 0.43781
0.7889 -0.545173 0.283589
0.40567 0.203413 -0.891097
0.349169 -0.931194 -0.104684
-0.324156 0.300393 0.897043
0.623401 0.482474 0.615297
-0.960324 0.26424 -0.0891867
-0.60876 0.666212 -0.430783
0.90437 0.325284 0.276233
-0.26859 0.665381 -0.696511
0.0520913 0.833215 -0.550491
-0.0729955 -0.432585 -0.898633
-0.952771 0.301524 -0.0362082
0.773609 -0.632941 0.0302478
0.867034 0.145878 -0.476415
-0.903133 0.0195181 -0.428917
-0.09477 -0.939781 -0.328375
0.0648595 0.879491 -0.471476
0.0140924 -0.412075 -0.911041
0.821323 0.231861 -0.521219
0.913908 -0.195676 0.355645
0.968197 -0.235348 0.0848836
0.876472 0.251003 0.410846
0.214808 -0.537421 -0.815497
0.113538 0.856628 -0.503287
0.0241899 0.265215 0.963886
0.947357 0.113568 -0.29936
-0.0987767 0.500949 0.859822
0.82301 -0.530479 -0.203091
-0.767496 -0.310668 0.560745
0.105872 0.2404 0.964883
0.577972 -0.717621 0.388546
-0.656615 0.341996 0.672232
-0.211457 -0.614639 0.759938
-0.133061 -0.0417061 0.99023
-0.33696 0.898547 -0.281196
0.722207 0.288503 -0.628636
0.955936 0.0958303 0.277494
0.473945 -0.65306 -0.590668
-0.65085 0.0453863 -0.757849
-0.0112062 -0.68526 0.728212
0.0315696 -0.811137 0.584004
-0.327144 0.902833 -0.279051
0.49543 0.868583 0.0106536
0.760026 -0.436681 -0.481321
0.873714 -0.434498 -0.218714
0.93934 0.111381 -0.324399
0.631167 -0.163558 -0.758207
-0.633503 -0.411257 -0.655395
-0.158831 -0.486559 -0.859088
-0.888208 0.457645 0.0405914
0.204661 0.630313 0.748879
-0.0669314 -0.211658 -0.975049
-0.247284 0.828818 0.501907
-0.0458909 0.320769 0.946045
0.828272 0.560203 -0.0117172
0.655355 -0.742694 -0.137535
-0.156659 0.911576 0.380115
-0.592378 0.535453 -0.601979
0.509812 0.844868 -0.16214
0.545646 0.666656 0.507779
0.534107 -0.742991 -0.403352
-0.816208 -0.125558 0.56395
-0.715715 -0.672865 -0.187095
0.780415 -0.516129 0.352936
-0.0522799 0.957402 0.283988
-0.498851 -0.196438 -0.844133
0.460513 -0.685434 -0.564011
0.725999 0.52778 0.440879
0.414476 0.909765 0.023181
0.832343 -0.254131 -0.492568
-0.328125 -0.161211 -0.930776
0.539066 0.841793 -0.0281512
-0.173164 -0.744397 0.644893
-0.0883853 0.312087 0.945933
-0.0326961 -0.0897864 -0.995424
-0.231447 -0.251347 0.939817
0.304828 -0.951859 -0.0323141
0.426052 0.773897 -0.468576
-0.13863 0.398595 -0.906589
0.0666137 0.945341 -0.319206
0.242767 -0.521419 0.818038
0.432524 -0.901414 0.0193697
-0.881166 0.145286 0.449931
0.745482 0.625605 -0.229944
-0.151741 -0.311591 -0.938022
0.510563 -0.12573 0.850599
0.644251 0.595429 0.480006
0.206284 -0.412728 -0.887188
0.500561 0.820918 0.274832
-0.743788 -0.624395 -0.238559
0.189693 -0.823653 -0.534427
0.892371 0.442792 -0.0872253
0.928571 0.19381 -0.316534
-0.0940451 0.684738 -0.722696
0.818614 -0.492059 0.296224
-0.452092 0.496035 -0.741324
0.361234 -0.815066 0.452966
0.408083 0.897215 -0.168741
-0.675965 0.653794 0.340036
-0.964361 0.103414 -0.243544
0.358026 0.933711 0.00120962
0.47776 -0.675258 -0.561936
0.667412 -0.723954 -0.174506
0.415317 0.909627 -0.00947075
0.831533 -0.5503 -0.0756445
0.21369 0.156847 -0.964228
0.305863 0.677889 -0.668516
0.953048 0.0977167 0.286621
0.844486 0.439616 -0.305912
0.758997 -0.528446 -0.380353
0.0462004 0.0506329 -0.997648
-0.648562 -0.180049 0.73956
0.144044 0.0938393 0.985112
0.0223306 0.0131007 0.999665
0.718229 -0.289151 0.632882
0.683893 0.674567 -0.277937
0.793637 -0.236386 -0.560592
0.457234 0.437477 -0.774307
-0.79832 0.44571 -0.405003
0.92491 -0.351197 0.145609
0.967471 -0.149597 -0.204009
0.161982 0.947667 -0.275115
0.288043 0.202362 -0.935992
-0.073139 -0.902099 -0.425287
-0.950013 0.312113 -0.00780579
0.26873 -0.68369 -0.678493
0.839384 0.540925 -0.0532339
-0.0595188 0.319775 0.945622
0.514258 -0.642092 -0.568557
0.869464 -0.363136 0.334911
0.61198 -0.734635 0.292901
0.584914 0.759744 0.284014
0.146189 -0.441371 0.885337
0.130651 -0.360529 -0.923552
0.650126 0.72995 -0.210971
-0.523659 0.400026 -0.752171
-0.0714641 -0.713896 0.696596
-0.815605 0.558436 -0.15145
-0.524179 0.832881 0.17761
-0.693127 0.554055 0.461084
0.76765 0.431751 0.473608
-0.835289 -0.461155 -0.299378
-0.768515 0.18932 0.611181
-0.926268 0.376815 -0.00613465
0.156245 -0.814222 -0.559133
0.76543 -0.49468 0.411593
0.220073 -0.868621 0.443921
-0.902274 -0.221659 -0.369824
-0.494027 -0.774903 -0.394287
0.439951 -0.555219 -0.705814
0.712786 -0.671881 0.201276
-0.740514 0.246981 0.625012
0.0914976 -0.0779613 0.992749
-0.529242 -0.655958 -0.538166
-0.0254512 0.11319 -0.993247
0.964055 -0.249373 -0.0917083
-0.440306 -0.49803 -0.747059
0.694716 0.295071 -0.655975
0.430337 0.726913 0.53517
-0.79267 -0.571734 0.211647
-0.757836 -0.514098 -0.401732
0.964783 -0.241559 0.104132
0.775776 0.615983 -0.136882
0.323506 -0.943241 0.0750977
0.698474 0.101672 -0.708376
0.581098 0.62467 0.521644
-0.102562 0.325906 0.939822
0.975841 0.209837 0.0608497
0.490368 -0.198241 0.848669
0.608167 0.624107 -0.490533
-0.997289 0.00616526 -0.0733227
-0.0641663 -0.975839 0.208858
-0.112818 0.991171 0.0696636
-0.477827 0.569682 -0.668689
-0.365638 0.231102 0.90161
-0.999775 -0.0201937 0.00649125
0.688029 -0.102527 0.718404
0.786572 -0.380972 0.485968
0.0611513 0.553908 -0.830329
0.244952 -0.290329 -0.925045
0.880866 -0.437863 -0.179866
0.958558 -0.195619 -0.207123
0.758772 -0.180063 -0.625973
0.698901 0.232049 -0.676528
-0.521967 -0.699424 0.488217
0.379707 0.406119 -0.831198
-0.343068 -0.890593 -0.298576
-0.175595 0.953102 0.246503
0.486632 -0.86963 0.0832627
0.0678891 0.301349 0.951094
0.112524 -0.182694 -0.976709
0.678972 -0.727703 -0.097186
0.906652 0.039995 0.419978
0.0731656 -0.898024 -0.43382
-0.0596663 0.997118 -0.0468491
0.288546 0.17247 -0.941804
0.59654 -0.527187 -0.605157
-0.97312 -0.0956613 -0.209489
0.0741683 -0.0329446 0.996701
0.898096 -0.080108 0.432441
0.798248 0.369844 -0.47541
0.97389 0.0903006 -0.208287
0.85188 0.000335817 -0.523736
0.856429 -0.292608 -0.425335
-0.83329 -0.544543 0.0953923
0.478064 -0.841129 -0.252897
-0.81529 0.118899 0.566715
0.662499 -0.0477711 -0.747538
0.12244 -0.644937 0.754363
-0.312775 0.316728 0.895464
-0.151202 0.496376 -0.854838
-0.147329 -0.529411 -0.835475
0.162816 -0.193212 -0.967554
-0.690057 0.69124 0.214499
0.556287 0.719048 -0.416551
0.813309 -0.110586 -0.571226
0.104253 0.369244 0.923467
-0.344157 -0.840759 -0.417948
-0.662043 -0.657695 -0.359356
0.178966 -0.466437 0.866261
-0.205844 -0.105967 -0.972831
0.435562 -0.200938 0.877445
0.505396 -0.631555 0.587974
0.774643 -0.414639 0.477497
0.500182 -0.213203 0.839263
-0.768639 0.360472 0.528445
-0.0412899 0.600286 -0.798719
-0.404634 -0.913233 0.0477208
0.878923 -0.474164 0.0516108
0.503765 0.19146 -0.842356
-0.335173 0.335506 -0.880394
-0.384047 -0.59774 -0.703715
-0.601717 -0.782064 0.16221
-0.49236 0.385957 -0.78014
-0.211659 0.34191 0.915586
-0.16723 0.985686 -0.0213765
-0.0423194 0.40846 0.911794
0.576121 0.568273 0.587495
-0.0164906 0.503444 -0.863871
0.732381 -0.164835 -0.660642
-0.751545 0.0320097 -0.658904
0.7875 0.424669 0.446654
-0.277026 0.909867 0.308868
0.782356 -0.500593 0.370575
0.160743 0.0425768 -0.986078
-0.961277 -0.0275836 0.274201
0.758897 0.629195 0.167894
0.485051 0.218494 0.84675
0.396715 0.573357 -0.716853
0.0890883 -0.266341 -0.959753
0.0354627 -0.998907 -0.0304559
0.518946 -0.519476 -0.678852
-0.107481 0.990474 0.0860737
0.748035 0.4941 -0.443069
0.0198871 -0.189161 -0.981745
-0.448099 -0.202036 -0.870855
0.0879954 0.317249 -0.944251
-0.740485 -0.574077 -0.349452
0.362252 0.529413 0.767135
0.787042 -0.343281 0.512566
-0.805452 0.00690583 -0.59262
-0.883842 -0.0595242 -0.463984
-0.771971 0.368052 0.518265
-0.220162 0.971834 -0.0840716
-0.870319 0.136929 -0.47307
-0.782354 0.149411 0.604648
-0.545349 0.762445 -0.348243
0.406466 -0.905554 -0.121483
-0.526608 -0.830417 -0.181911
-0.784228 -0.270256 0.558523
0.88443 0.171788 -0.433905
0.334958 -0.523938 0.78313
0.177931 0.266818 -0.947179
0.890145 -0.222771 0.39751
0.128217 0.235401 0.963404
-0.103407 -0.983838 0.146187
0.0406251 0.560673 0.82704
0.168377 0.458338 -0.872683
-0.835794 0.232294 0.497482
-0.865642 0.208894 -0.455002
-0.765983 0.18674 0.615141
0.212626 -0.129964 -0.968452
-0.595934 -0.782993 -0.178281
0.825299 0.255846 0.503413
-0.409246 -0.795109 -0.44757
0.164439 -0.840156 -0.516815
-0.651946 0.425834 0.627401
0.0297353 -0.473439 0.880325
-0.88515 0.188739 -0.425308
-0.746036 0.170665 0.643664
-0.53758 0.0519309 0.841612
0.925717 -0.0208708 0.377641
0.134985 0.653649 0.744662
-0.592585 -0.794107 -0.135043
0.934018 0.181831 0.307488
0.572999 -0.800883 0.173949
0.112896 -0.546535 0.829791
-0.277683 0.934498 0.222721
0.503432 -0.826619 0.251512
0.492933 0.861809 -0.11959
-0.104095 0.75567 0.646627
0.440755 0.818852 -0.367717
-0.462624 -0.836462 0.293786
0.576827 0.354349 0.736008
-0.157922 0.710789 -0.685449
-0.673501 -0.486391 0.556615
0.418051 0.464427 -0.780731
-0.983628 0.179281 -0.0183081
-0.205851 0.935658 0.286651
-0.686774 0.119494 -0.716982
0.286815 0.927178 -0.240993
0.879764 0.174179 -0.442355
-0.206403 -0.0592108 -0.976674
0.841469 -0.532182 -0.0933405
0.462282 -0.809688 -0.361525
-0.777136 0.611928 0.146984
-0.685446 -0.726427 -0.0496838
-0.779993 -0.555467 0.288215
-0.250349 0.116092 -0.96117
-0.904357 0.169808 -0.391541
0.718354 0.443751 0.535773
0.572303 -0.239969 -0.784146
0.202203 0.68071 0.704094
-0.401905 0.611562 -0.681516
0.51099 0.0823626 -0.855632
0.226824 -0.842047 0.489396
-0.836411 0.339813 0.430051
-0.521076 0.846356 0.110277
-0.267852 -0.422641 -0.865812
-0.483879 -0.0408052 -0.874183
0.565238 0.793338 0.226101
0.787919 0.250822 0.56238
-0.48103 -0.39103 -0.784669
-0.59848 -0.780572 0.180356
0.52486 -0.816619 -0.240113
-0.545949 0.582986 -0.60172
-0.291099 -0.932708 0.212879
0.0964853 -0.802993 -0.588127
0.169931 0.610329 0.773707
0.219777 -0.710991 0.667975
-0.857059 -0.21301 -0.469123
0.196314 -0.010704 -0.980483
0.239552 0.385762 -0.890956
0.0201405 -0.874833 0.484005
-0.707874 0.520395 0.477602
0.418851 -0.227615 0.879065
-0.45952 -0.181651 0.869393
0.957185 0.0668077 -0.281662
-0.50873 0.797552 -0.324198
-0.231511 -0.492313 0.839065
-0.512806 -0.436581 -0.739207
-0.727756 0.485546 0.484372
-0.807474 -0.583788 0.0847238
-0.238521 -0.049145 0.969893
0.475211 -0.620228 -0.624093
-0.497582 -0.367381 -0.785776
-0.36404 -0.892214 -0.267264
0.972063 -0.222814 -0.0737995
-0.150316 0.895202 0.419545
0.308278 0.418154 -0.854466
0.951149 0.304399 0.0515352
0.614143 0.199622 -0.763531
0.895516 -0.108948 -0.431486
-0.298481 -0.932159 0.204912
0.18484 0.6144 0.767038
0.475873 -0.0663024 -0.877011
-0.862181 -0.488382 -0.134636
0.346815 -0.84303 0.41112
0.163196 -0.712204 0.682739
-0.755414 -0.098888 -0.647743
-0.0100901 -0.722972 -0.690804
-0.429556 -0.0905558 -0.898488
-0.808373 0.508255 -0.297002
-0.944544 -0.182713 -0.27286
0.485782 0.846689 -0.217102
-0.90031 0.227775 -0.370892
-0.196185 0.690443 -0.696276
0.590663 -0.102881 0.800333
-0.668571 0.683052 0.294029
0.878714 -0.202015 0.432495
-0.285633 0.859865 0.423138
0.65477 0.434059 0.618764
-0.636116 -0.682404 0.360114
0.174857 -0.983963 0.0352484
0.634176 -0.734393 -0.241843
0.628961 0.194678 -0.752667
0.453353 -0.880379 -0.139297
0.318348 0.917756 -0.237442
-0.183217 0.892453 0.412262
0.112239 0.936201 0.333062
-0.663794 0.747906 -0.00374886
0.154987 0.601442 0.783739
0.180596 -0.698236 0.692713
-0.916358 -0.0244798 -0.399611
0.0747784 -0.0942731 -0.992734
-0.543585 0.072472 0.836219
0.672577 0.731474 -0.112188
0.712312 0.543354 -0.444273
0.56141 -0.78681 -0.256416
-0.823718 -0.43991 -0.357727
0.622243 -0.640527 0.450043
0.185083 -0.390361 -0.901866
-0.381274 0.907812 -0.174662
0.793064 -0.350449 0.498232
-0.988636 -0.12066 0.0896611
-0.165073 0.740411 0.651569
-0.537051 -0.576886 0.615449
-0.244208 -0.439892 -0.864209
-0.988614 0.0568128 -0.139335
0.348917 0.0184296 0.936972
0.509518 -0.818578 -0.265183
-0.597976 0.0448382 0.800259
-0.04771 -0.157679 0.986337
-0.304353 -0.931913 -0.197251
-0.551176 -0.504696 -0.664444
0.377479 -0.776564 -0.504438
0.797623 0.226723 0.558922
0.730319 0.540338 -0.417935
-0.904574 -0.0102835 0.426192
-0.341513 0.933609 0.108362
-0.244418 -0.621767 -0.744087
-0.804025 -0.423778 0.41708
-0.193484 0.518573 0.832854
0.425711 0.674525 -0.603147
0.576378 -0.606219 0.547984
0.805045 0.228054 0.547627
-0.563753 0.392815 0.726553
-0.0283559 -0.179926 -0.983271
0.468335 0.882566 0.0417086
0.0477204 -0.753315 0.655927
0.941482 -0.246119 -0.230298
-0.77283 -0.536653 0.33873