# vtk DataFile Version 3.0.
comment
ASCII

DATASET POLYDATA
POINTS 12136 double
0.0331312 0.524973 0.286843
0.475771 0.397813 0.450379
0.0946685 0.519661 0.468312
0.0955586 0.682027 0.548658
0.660935 0.526266 0.697302
0.115758 0.511687 0.50722
0.0701265 0.508325 0.140255
0.0788381 0.541717 0.185903
0.216664 0.436225 0.628278
0.113276 0.527246 0.594745
0.306556 0.224675 0.246584
0.300718 0.638569 0.343423
0.0526654 0.106935 0.346859
0.407158 0.560587 0.4267
0.0795502 0.231572 0.169215
0.0913272 0.296527 0.214562
0.41559 0.645627 0.462961
0.0274837 0.571229 0.428818
0.0899356 0.22541 0.122028
0.589723 -0.00409941 0.43268
0.120905 0.141203 0.279531
0.0680762 0.631012 0.44946
0.121576 0.629463 0.477849
0.0871826 0.0659053 0.5081
0.0755837 0.343144 0.6878
0.130987 0.0104215 0.352232
0.324185 0.755765 0.446944
0.115556 0.0929263 0.176262
0.572443 0.478564 0.658722
0.52701 0.324685 0.56404
0.356844 0.259095 0.632318
0.152472 0.20072 0.0635646
0.184033 0.249212 0.132413
0.119528 0.374356 0.328168
0.110307 0.313061 0.340266
0.114665 0.364802 0.431915
0.13287 0.04686 0.703019
0.0619105 0.643205 0.357381
0.109183 0.582857 0.383671
0.312551 0.636997 0.447036
0.487191 0.529855 0.387171
0.661523 0.0997642 0.363993
0.457096 0.167642 0.63147
0.145019 0.0763475 0.490145
0.126639 0.0101644 0.45764
0.0974512 0.175542 0.216193
0.647478 0.515229 0.307366
0.661457 0.456913 0.528843
0.505117 0.113826 0.597766
0.103105 0.428639 0.287629
0.120634 0.0077424 0.0556799
0.145581 0.329755 0.290813
0.107415 0.372654 0.137232
0.119921 0.288932 0.518799
0.0997843 0.284778 0.574369
0.503525 0.172714 0.676101
0.441364 0.67453 0.312787
0.164644 0.481401 0.647641
0.122919 0.479272 0.140716
0.635014 0.420396 0.413997
0.693498 0.0923832 0.420988
0.16039 0.530357 0.01346
0.196024 0.119563 0.0626376
0.0972922 0.229742 0.607545
0.128702 0.111864 0.438834
0.107871 0.0369098 0.401994
0.140007 0.280842 0.723128
0.145355 0.57287 0.564412
0.146185 0.559894 0.622426
0.106184 0.336903 0.196773
0.162766 0.18484 0.457055
0.139424 0.0383173 0.0881375
0.639092 0.569106 0.359604
0.157553 0.373271 0.122786
0.173089 0.321169 0.195602
0.155782 0.482634 0.49344
0.105683 0.463056 0.581399
0.676958 0.61969 0.161178
0.191717 0.689569 0.726558
0.165084 0.121735 0.224292
0.185323 0.172728 0.133654
0.168285 0.0946854 0.172065
0.115056 0.252249 0.359538
0.695135 0.532914 0.115992
0.634965 0.297887 0.607662
0.141665 0.667687 0.564076
0.126315 0.684666 0.648465
0.196042 0.053845 0.609637
0.287853 0.0485301 0.177991
0.146432 0.425288 0.222356
0.318713 0.0692103 0.607749
0.182079 0.341143 0.247535
0.173336 0.400218 0.339444
0.183378 0.520476 0.414986
0.171035 0.529744 0.307612
0.195668 0.606808 0.389593
0.0484978 0.306727 0.364717
0.630731 0.296824 0.121833
0.125502 0.676629 0.178421
0.141539 0.343324 0.605728
0.16438 0.135288 0.27723
0.196549 0.0825285 0.70384
0.17662 0.236525 0.270431
0.151414 0.22494 0.343951
0.173408 0.291141 0.258889
0.717718 0.529592 0.550808
0.544741 0.204459 0.275355
0.197155 0.277841 0.311088
0.161317 0.571191 0.141683
0.0195699 0.442302 0.348733
0.204282 0.329038 0.693087
0.194936 0.275906 0.711264
0.185163 0.470776 0.171979
0.172955 0.284955 0.461159
0.16902 0.409191 0.0310026
0.635222 0.0253947 0.47812
0.645973 0.480479 0.589091
0.331364 0.0751492 0.710535
0.164729 0.33563 0.444407
0.153165 0.350088 0.531365
0.450321 0.250058 0.681371
0.16552 0.389904 0.433013
0.623118 0.163872 0.649445
0.159292 0.0723432 0.279288
0.163699 0.0696847 0.331131
0.636492 0.433789 0.578427
0.245031 0.294438 0.416277
0.18681 0.625064 0.433067
0.26784 0.322357 0.0551874
0.458513 0.387256 0.0715654
0.689666 0.205323 0.526888
0.490972 0.28567 0.0863609
0.181055 0.00683224 0.426408
0.213352 0.246881 0.409953
0.219601 0.29107 0.35943
0.595283 0.392356 0.350121
0.221347 0.115135 0.26684
0.0293439 0.264855 0.305796
0.10781 0.454844 0.53387
0.194085 0.697546 0.180944
0.194502 0.647006 0.259055
0.259634 0.231019 0.558997
0.192921 0.526857 0.499864
0.20065 0.462597 0.508835
0.238449 0.447421 0.455542
0.367851 0.419348 0.565044
0.136803 0.231136 0.586345
0.222946 0.0952251 0.592853
0.0960973 0.384628 0.609744
0.17919 0.190283 0.664749
0.662392 0.238828 0.281206
0.0167026 0.602897 0.540524
0.190157 0.644315 0.527405
0.192202 0.336141 0.599385
0.17755 0.37312 0.568125
0.180842 0.295868 0.574163
0.236211 0.287014 0.140191
0.21331 0.0740437 0.248062
0.472049 0.653723 0.29192
0.23253 0.167651 0.137553
0.29624 0.474453 0.577288
0.0465999 0.159397 0.0602393
0.601471 0.440429 0.324478
0.067949 0.376439 0.217075
0.19096 0.548514 0.585918
0.436931 0.306699 0.124548
0.705468 0.146362 0.486098
0.703798 0.538452 0.676928
0.663967 0.562375 0.634829
0.22106 0.0677841 0.664291
0.24994 0.0891761 0.70242
0.215134 0.374806 0.0988932
0.185867 0.462247 0.0751993
0.576844 0.53367 0.65227
0.420509 0.461757 0.42729
0.302036 0.426656 0.0915199
0.658418 0.606874 0.42423
0.237138 0.656262 0.0731057
0.629443 0.410472 0.270823
0.192199 0.199998 0.386678
0.165678 0.0216873 0.521854
0.219 0.385029 0.604962
0.243473 0.330158 0.582339
0.613375 0.550515 0.523911
0.700458 0.634988 0.645698
0.10131 0.678651 0.220263
0.387699 0.593869 0.467305
0.220287 0.198205 0.636479
0.267474 0.368683 0.325414
0.249499 0.239981 0.638665
0.597651 0.439351 0.373983
0.250799 0.467259 0.543955
0.736273 0.225572 0.0769092
0.0328538 0.644769 0.537598
0.675791 0.332796 0.13771
0.271358 0.66007 0.458883
0.190006 0.104425 0.29982
0.113637 0.193719 0.584486
0.257196 0.459884 0.110593
0.277264 0.441405 0.17227
0.278113 0.47062 0.210965
0.27716 0.524166 0.210507
0.571463 0.293767 0.580798
0.235955 0.676805 0.724259
0.419556 0.390854 0.0480763
0.239671 0.562917 0.613711
0.228551 0.577474 0.671654
0.232536 0.515785 0.6903
0.230332 0.398294 0.657952
0.165855 0.443022 0.618505
0.333637 0.313795 0.375429
0.252626 0.0903638 0.564695
0.299706 0.2816 0.0279271
0.285355 0.191356 0.345637
0.214206 0.242191 0.551768
0.218656 0.285953 0.557751
0.233015 0.256247 0.587811
0.236431 0.207413 0.461696
0.257537 0.167448 0.440368
0.281031 0.196242 0.393783
0.301113 0.491546 0.244191
0.314992 0.547791 0.498874
0.628415 0.369798 0.169697
0.455468 0.403763 0.380807
0.287442 0.0553634 0.286851
0.402031 0.504541 0.27459
0.220466 0.673475 0.377071
0.507606 0.319518 0.601701
0.711663 0.100125 0.245986
0.302068 0.24731 0.163648
0.573636 0.224376 0.428952
0.26036 0.105361 0.499692
0.104979 0.650627 0.597782
0.565533 0.0542937 0.632326
0.242313 0.112208 0.13421
0.0239918 0.544161 0.228998
0.282738 0.488842 0.385106
0.287271 0.0956881 0.156715
0.112001 0.476944 0.483125
0.663942 0.459704 0.123975
0.13515 0.582103 0.314783
0.391778 0.672381 0.414664
0.628278 0.596212 0.530135
0.0307087 0.509695 0.338206
0.303806 0.608735 0.169825
0.0477197 0.607456 0.512704
0.277327 0.584214 0.216038
0.0173759 0.56219 0.490675
0.629507 0.0801376 0.456386
0.604162 0.138243 0.404246
0.531731 0.376026 0.19661
0.494097 0.361886 0.554299
0.334869 0.383139 0.352846
0.608953 0.478896 0.269769
0.337031 0.418471 0.53948
0.252603 0.125366 0.0719521
0.738165 0.608265 0.686746
0.375961 0.546745 0.36154
0.620788 0.517416 0.230305
0.244056 0.265342 0.520318
0.277008 0.18724 0.539051
0.532012 0.297263 0.29871
0.25052 0.208004 0.600921
0.551393 0.373994 0.33243
0.304398 0.685334 0.144389
0.729429 0.278339 0.0713195
0.263247 0.586208 0.272744
0.0979682 0.488721 0.617453
0.0101581 0.440263 0.25472
0.293907 0.0887488 0.586612
0.511759 0.0966724 0.451662
0.429077 0.0685901 0.501035
0.269672 0.378499 0.400469
0.264241 0.362258 0.490111
0.623948 0.533975 0.666653
0.0181082 0.552305 0.329993
0.0612085 0.314292 0.417539
0.285985 0.545893 0.557166
0.69589 0.225831 0.577874
0.0576969 0.0444097 0.424393
0.0913383 0.573796 0.661434
0.3203 0.586125 0.118446
0.603573 0.590447 0.378743
0.0493509 0.231259 0.618595
0.280499 0.332772 0.388884
0.307471 0.669252 0.696871
0.594 0.114754 0.631049
0.334896 0.223071 0.333803
0.513374 0.495266 0.565782
0.299416 0.0629683 0.682086
0.287085 0.335267 0.248308
0.187836 0.35535 0.397684
0.320122 0.376841 0.250879
0.586351 0.587815 0.520593
0.377921 0.155883 0.0727379
0.538792 0.245563 0.318825
0.351347 0.512331 0.511886
0.341647 0.498397 0.56046
0.686046 0.167522 0.677583
0.361684 0.248563 0.0745148
0.388968 0.595836 0.583401
0.337333 0.317407 0.175413
0.67217 0.642678 0.200246
0.327527 0.223608 0.203477
0.443765 0.130793 0.0434761
0.630157 0.384106 0.706668
0.625414 0.339235 0.69063
0.031227 0.302953 0.6764
0.551014 0.398827 0.555286
0.400655 0.0277553 0.305706
0.243604 0.196794 0.363525
0.667626 0.410806 0.455931
0.296613 0.205466 0.581286
0.308895 0.268042 0.634776
0.328425 0.240185 0.600194
0.395438 0.0971266 0.525193
0.465445 0.18086 0.452743
0.311947 0.487859 0.711257
0.386663 0.511441 0.542887
0.318839 0.235885 0.397996
0.344522 0.146224 0.39904
0.358979 0.169111 0.335954
0.295397 0.634486 0.400788
0.526767 0.236256 0.698864
0.0603017 0.247618 0.467697
0.636696 0.0360495 0.211024
0.362882 0.0563994 0.229161
0.653962 0.320674 0.228926
0.187123 0.185485 0.58302
0.111685 0.128912 0.226713
0.298437 0.535572 0.39952
0.320365 0.738526 0.526782
0.349181 0.650004 0.609704
0.366161 0.39595 0.522629
0.439107 0.615734 0.0249275
0.207031 0.502313 0.215402
0.498705 0.108871 0.266044
0.360126 0.357951 0.273408
0.330213 0.378449 0.53338
0.314221 0.589885 0.423411
0.253128 0.414482 0.0472238
0.344434 0.61553 0.361828
0.352779 0.148562 0.642768
0.656762 0.574393 0.230283
0.335775 0.575062 0.207988
0.416027 0.628775 0.178498
0.698977 0.320566 0.586535
0.303988 0.662865 0.292375
0.670731 0.483484 0.352352
0.339726 0.504001 0.276871
0.337168 0.515392 0.215706
0.397719 0.199419 0.270302
0.589122 0.684475 0.214226
0.463618 0.236117 0.305563
0.0366284 0.445019 0.0530007
0.341849 0.171324 0.276353
0.167895 0.49529 0.039431
0.3492 0.735383 0.48056
0.379739 0.304048 0.134986
0.34972 0.379696 0.125307
0.419767 0.233371 0.294496
0.365879 0.552744 0.491354
0.358604 0.642983 0.471185
0.321106 0.115035 0.567914
0.0608847 0.36169 0.435507
0.735161 0.161762 0.395945
0.592568 0.606467 0.559647
[...]
POINT_DATA 12136

VECTORS nn double
-0.281196 0.944627 -0.169143
0.19127 0.329316 -0.924644
0.156213 0.73168 0.663508
-0.3414 -0.440555 -0.830275
-0.141227 0.402245 0.904574
-0.329021 0.915497 -0.231539
0.655605 0.0208655 -0.754815
0.80521 0.592423 0.0259172
-0.238031 -0.0530483 -0.969808
-0.309314 0.948552 0.0676317
-0.0254892 0.892088 -0.451143
-0.112795 -0.901677 0.41744
0.509665 -0.200801 0.836613
-0.676821 -0.530091 -0.5108
-0.583297 -0.504938 -0.63624
-0.331884 0.882798 0.332448
-0.540964 0.837906 0.0726032
0.587688 0.62092 -0.51873
-0.822269 -0.366929 0.435013
0.0250423 0.0396734 -0.998899
0.651154 0.646729 0.397166
0.134154 0.44244 0.886707
0.790731 -0.468307 -0.394249
-0.738286 0.655326 0.159626
-0.726117 -0.231153 0.647551
0.00423269 0.487213 -0.873273
0.100633 -0.312474 -0.944581
0.378366 0.924969 -0.0356709
0.3136 -0.400482 0.86097
0.392533 -0.732945 -0.555616
0.334627 -0.583583 -0.739903
0.247546 -0.78759 -0.56429
-0.788911 -0.0405121 -0.61317
-0.557985 -0.277495 0.78208
0.410859 -0.69592 -0.588975
-0.481002 -0.12571 -0.86766
0.779013 0.15029 0.608729
0.0243965 0.659048 -0.751705
0.864788 -0.414168 -0.283913
-0.371947 0.77585 -0.50962
-0.650539 0.4208 -0.632239
0.817544 0.463165 0.342198
0.810021 0.526615 0.257957
-0.444585 -0.871297 0.207811
-0.067847 0.484048 0.872407
-0.65971 0.363701 0.657651
-0.122923 0.987266 0.10097
0.761539 -0.22926 -0.606217
-0.212717 0.0574402 -0.975424
-0.812844 0.560911 0.157049
0.711013 -0.324881 0.623628
-0.156186 -0.966012 0.205977
0.646508 -0.64857 0.401726
0.890468 -0.32314 -0.320386
-0.496243 0.404618 -0.768132
-0.343944 0.399328 -0.849847
-0.644477 -0.39977 0.651792
-0.518849 -0.853482 0.0486175
0.321905 -0.559161 0.764013
0.231367 -0.768721 0.59627
0.197978 0.609433 -0.767721
-0.513292 -0.834869 -0.198809
0.524793 -0.651846 0.547439
-0.552111 -0.833492 -0.0215659
-0.713198 -0.280068 -0.642581
-0.37782 0.924526 -0.0500384
-0.651769 -0.700073 -0.29171
-0.808644 0.231279 0.540929
-0.823049 0.43467 -0.365585
-0.672112 -0.0355044 0.739598
-0.149113 0.928229 -0.340818
0.336321 -0.941377 -0.0263983
0.052173 -0.137844 -0.989079
0.313677 0.662463 -0.680257
0.61104 -0.33702 0.716274
-0.781969 -0.108565 0.613791
-0.515175 -0.804222 -0.296346
-0.401991 -0.913482 -0.0628852
-0.82406 -0.471261 -0.314384
-0.39493 0.475778 -0.785917
-0.70924 -0.319898 0.628207
-0.44365 0.895706 0.0297688
0.33481 0.281354 -0.899301
0.612385 0.65257 -0.446247
0.959593 -0.0480334 -0.277262
0.456494 -0.688646 -0.563365
0.191179 -0.395464 0.898365
0.436441 -0.712458 0.549474
-0.433015 -0.241343 0.868477
-0.142872 0.507815 -0.849536
-0.221861 -0.243651 0.944146
0.406384 -0.788806 -0.461126
0.271665 0.121278 0.95472
-0.294824 0.560919 -0.773595
-0.101724 0.415483 0.903895
-0.486684 -0.788335 -0.376387
0.570352 0.796476 0.200812
0.690214 0.220022 -0.689344
-0.582574 -0.0785784 -0.80897
0.476633 -0.227829 -0.849067
-0.410318 0.79124 0.453408
-0.548793 -0.592537 0.589683
-0.655388 0.534432 0.533712
-0.249516 0.719646 -0.64796
-0.603586 -0.344088 0.719227
-0.847409 0.466288 -0.253915
-0.609953 0.781387 -0.131878
-0.984208 -0.130004 -0.120143
0.611968 -0.0863084 -0.786159
0.493124 0.346886 -0.797809
0.516294 0.175557 -0.838225
0.345894 -0.789465 -0.507052
-0.908642 -0.39122 0.146002
-0.265517 -0.235969 0.934783
0.104288 0.00673312 0.994524
0.807867 0.547177 -0.218972
0.385252 0.342964 0.856712
0.905007 0.157766 -0.39506
-0.409204 0.644577 0.645811
0.203249 -0.386888 0.899449
0.742892 -0.233052 0.627534
0.422876 0.320379 -0.847663
-0.729819 -0.588638 0.347664
0.530888 0.681957 -0.503083
0.613021 0.630476 0.476136
0.154597 -0.788006 0.595941
0.985104 -0.0715106 0.156383
-0.690213 -0.368847 0.622542
-0.131357 0.230105 0.96426
0.388519 0.75915 0.52225
0.559916 0.805886 0.192462
0.361806 -0.029373 0.931791
0.831969 0.427573 0.353567
-0.436248 0.898612 -0.0467381
0.543354 -0.12985 -0.829401
-0.772044 0.629562 -0.0871772
-0.92325 -0.321012 -0.211095
0.186275 -0.0433997 -0.981539
-0.549585 -0.662926 0.508414
-0.580808 -0.276193 0.765755
0.589232 -0.582234 0.560187
-0.41159 -0.339768 -0.845666
-0.125925 0.673672 0.728224
0.0108116 -0.462893 0.886348
0.679446 -0.731593 -0.0558979
-0.0870002 -0.380269 0.920775
0.335771 -0.800062 -0.497151
0.970234 0.108473 0.216515
-0.351635 0.524856 -0.775164
-0.622584 -0.717745 -0.31182
-0.554102 0.816409 -0.162629
-0.386566 0.721473 0.574494
0.889705 0.0394925 -0.454825
-0.713179 -0.0588303 -0.698509
0.370078 0.928337 -0.0351066
-0.447471 0.887892 -0.106852
-0.389327 -0.811407 0.43594
-0.733424 0.640276 0.228333
-0.204138 0.97607 -0.0749325
0.510404 -0.452423 0.731301
-0.00741505 0.412959 -0.91072
0.157992 -0.548953 0.820786
-0.886863 -0.255297 0.385093
0.200876 -0.939689 0.276827
0.0873427 -0.247569 0.964925
-0.435285 -0.895633 -0.0914845
0.833032 -0.211106 -0.511363
0.556346 0.600994 0.573834
-0.0919318 0.98952 -0.11135
0.0284679 -0.939407 -0.341619
-0.708063 0.435619 -0.555772
-0.735278 0.632561 -0.243378
-0.203006 -0.96091 0.188256
0.388007 0.534446 0.750878
0.161367 0.185205 -0.969361
0.906164 -0.263863 0.330519
-0.492878 -0.723243 -0.483725
0.835603 0.515836 0.188894
-0.422157 -0.752392 -0.505657
-0.857842 -0.0423664 -0.512164
0.863407 -0.247452 0.439655
-0.274927 0.744134 -0.608835
0.126976 -0.157104 -0.979385
-0.971323 -0.101744 -0.214896
-0.822512 -0.463948 -0.328978
-0.99409 -0.044312 -0.0991038
0.989779 -0.00541649 -0.142509
0.100501 -0.578544 -0.809436
-0.0916977 -0.201667 0.975152
0.615633 0.156931 -0.772249
-0.816639 -0.23549 -0.52692
-0.771165 -0.537171 0.341691
-0.702357 -0.674713 0.226841
-0.742429 -0.203724 0.638197
-0.014899 -0.343349 -0.93909
0.574819 0.244602 -0.780867
0.188248 0.0698344 0.979636
-0.88699 -0.0903849 0.452858
0.205116 -0.559535 -0.803024
0.514673 -0.844113 0.150284
0.529878 -0.394604 0.750678
0.513109 0.433704 0.740689
0.459892 0.139997 0.87687
0.414275 -0.827783 -0.378355
0.534795 -0.844276 0.0345194
0.712331 0.483923 -0.508333
0.529952 0.72312 0.442999
0.595446 -0.289912 0.749263
0.0886721 -0.96114 -0.261434
0.551955 -0.158794 -0.818614
0.439755 0.382477 -0.812605
-0.195067 -0.235478 -0.952102
0.611953 -0.720813 0.325488
-0.838609 0.0248509 -0.544167
0.445886 -0.549258 -0.706754
0.563407 0.621032 -0.544878
0.950327 -0.172901 0.258814
0.0270998 0.106548 0.993938
0.449531 -0.69407 0.562307
0.921189 -0.117751 -0.370871
-0.11517 -0.976699 -0.181092
-0.328128 -0.84112 0.429941
-0.874366 0.328523 -0.35715
-0.670896 -0.189198 -0.717009
0.4262 0.34801 0.83501
0.482297 0.779362 -0.399981
0.0830735 0.743233 -0.663854
0.132886 0.875405 -0.464765
-0.397377 -0.375485 0.837318
-0.0444636 -0.538657 -0.841351
0.0633493 -0.248418 0.966579
0.389884 0.613339 -0.686881
-0.178328 -0.98377 0.0198873
-0.467829 -0.341196 0.815305
0.338586 0.514829 0.787598
-0.133343 0.633268 0.762359
0.437716 0.237138 0.867277
-0.445096 0.803279 0.395768
0.433029 0.049346 0.900028
0.0753887 0.960007 0.269636
0.458793 -0.402208 0.792298
-0.121642 0.36663 0.92238
0.711309 -0.694786 0.106356
-0.318858 0.705559 0.632864
-0.977248 0.131706 0.166252
0.485836 0.848891 -0.2082
-0.510422 0.564279 -0.64889
0.367386 0.423859 0.827871
0.904646 -0.396678 0.155761
0.496543 0.537072 -0.681908
-0.358125 -0.732746 -0.578645
-0.499504 0.274416 -0.8217
0.418888 -0.801149 -0.427426
-0.761625 0.382997 -0.522725
-0.875472 -0.402801 0.267021
-0.530727 -0.760575 0.373971
-0.189186 -0.913282 0.360728
0.0360514 -0.213338 0.976313
0.959241 0.252138 -0.127603
-0.116813 -0.986574 -0.11413
-0.738104 0.486657 -0.467298
0.400035 0.755293 0.519138
-0.594254 -0.804246 0.00708958
-0.0356819 -0.970346 -0.239071
-0.255897 0.0435748 -0.965721
-0.854527 0.509468 0.101122
-0.745451 0.598216 0.294007
-0.722476 -0.104295 0.683485
0.639024 0.378063 0.669863
-0.882676 0.277476 0.379327
-0.988205 -0.130727 0.0797566
-0.479217 -0.367831 0.796901
0.146156 0.444829 0.883609
0.239409 0.723742 -0.64721
-0.744581 0.528939 0.407214
-0.0386671 0.502486 -0.86372
0.368569 0.676374 -0.637711
-0.167659 0.807202 0.565964
0.438729 0.406277 -0.801533
0.428782 0.804833 -0.410354
-0.034876 -0.217142 0.975517
0.710865 0.233419 0.663466
-0.756933 0.348337 -0.552913
0.436413 -0.864503 -0.249354
0.414175 -0.687516 0.596474
-0.702428 -0.710049 0.0492442
0.0219307 -0.605816 -0.795302
0.102989 0.628837 -0.770687
0.688361 0.116876 0.715891
0.272054 -0.0835548 -0.958648
0.278307 -0.832916 -0.478327
-0.00741098 0.986037 -0.166361
0.901703 -0.0480893 -0.429672
-0.382348 -0.912968 -0.142477
-0.386275 -0.246481 0.888841
-0.5125 0.101521 -0.852665
-0.94971 -0.234622 0.207372
-0.782746 0.00363541 -0.622331
-0.280875 0.530283 -0.799943
-0.730145 -0.0052352 -0.683273
-0.192542 0.139701 0.971294
0.506396 0.555011 -0.659943
0.501171 0.436742 -0.74705
0.352691 -0.909229 -0.22116
-0.638347 0.636553 -0.432798
0.841782 0.453195 0.293287
0.719825 -0.684776 -0.11373
0.0894657 0.507689 0.856883
-0.652329 0.740738 0.160542
-0.340865 -0.405879 -0.847982
0.171162 -0.106906 -0.979426
-0.662559 -0.504187 -0.553904
-0.33913 0.855831 0.390569
-0.589394 -0.412597 -0.694534
0.988135 -0.153397 -0.00766871
0.182804 -0.929164 0.321305
0.91983 -0.217148 0.32674
-0.90472 0.237606 0.35359
0.0877355 0.256008 -0.962685
-0.202062 0.869794 0.450144
-0.286179 0.834193 -0.471406
0.559684 -0.39734 -0.727237
-0.0227035 -0.832453 -0.55363
-0.968963 0.076154 0.235182
-0.349541 0.806251 -0.477263
0.244938 0.251012 -0.936482
0.276075 -0.872836 0.402417
-0.410878 -0.562651 0.717359
0.862034 -0.286443 0.418148
0.438343 0.363009 -0.822241
-0.0742683 0.842945 -0.53285
0.0202428 -0.67597 0.736651
-0.430155 0.708112 -0.55995
-0.130114 -0.977859 -0.163899
0.77765 -0.445523 -0.443587
-0.569674 0.0962696 0.816213
0.332913 -0.886167 0.322301
-0.0122665 -0.371087 0.928517
0.709399 -0.569618 -0.415077
-0.341393 -0.0775095 -0.936719
-0.305633 -0.564935 -0.766444
-0.852706 -0.511556 0.10584
0.871126 -0.218707 -0.439666
0.183216 -0.974847 -0.126906
0.462194 0.413185 -0.784637
0.835692 0.455687 0.306542
-0.715356 -0.64211 0.275608
-0.0241878 -0.243474 -0.969606
0.263308 0.459752 0.848113
0.526732 -0.768987 0.362233
0.484519 -0.580012 -0.654849
-0.101056 -0.914182 0.392503
-0.758197 -0.0666173 0.648614
0.731662 0.257428 -0.631191
0.644228 -0.404672 -0.649007
0.852424 -0.435367 0.289534
-0.667455 -0.104219 -0.737321
0.627389 -0.741747 -0.237054
-0.451468 0.855513 0.253524
-0.226077 0.852024 -0.472171
0.370195 -0.188531 0.909622
0.593489 -0.749648 0.292913
0.462082 0.883898 -0.0721423
-0.158084 0.980196 -0.119271
0.374216 -0.0761566 -0.924209
-0.611894 -0.740449 -0.278066
-0.220606 -0.427331 0.876768
-0.508437 0.801335 0.315205
0.50431 0.843534 -0.18472
0.803975 -0.326269 0.497164
0.140234 0.699448 -0.70079
-0.449737 -0.294631 -0.843166
-0.702294 -0.619213 0.351225
-0.827977 -0.558933 0.0452564
-0.960259 0.208 -0.186115
-0.0655472 -0.613207 0.787198
-0.649829 -0.554662 -0.519685
-0.125335 0.809089 0.574166
-0.922527 -0.000896923 -0.385931
-0.720205 -0.367714 0.588294
-0.0393611 -0.992863 -0.112581
-0.732401 -0.625894 -0.26804
0.836843 0.536241 -0.11018
-0.108646 -0.765752 -0.633892
-0.678535 -0.259184 0.687324
0.0474336 0.599055 0.799302
-0.00455173 -0.283661 0.958914
-0.0406555 -0.687094 -0.725431
0.0108035 0.595592 0.803215
-0.0504621 -0.989896 0.132516
-0.0109707 0.578624 -0.81552
-0.537738 -0.459429 0.706939
-0.0236285 -0.99751 -0.0664516
0.936353 -0.228853 0.266214
-0.740418 0.554184 0.380344
-0.569452 0.494875 0.656371
-0.88071 0.358449 -0.309619
-0.312984 -0.333871 -0.889141
0.0831707 0.247962 -0.965193
-0.928347 0.34256 0.144304
-0.231938 0.948133 0.217369
0.293891 -0.766726 -0.570753
-0.97515 -0.18965 0.114523
0.572112 0.694636 -0.436084
0.982569 0.183857 0.0274859
0.529414 0.125942 0.838963
0.930207 -0.227839 0.287758
-0.515227 -0.594767 0.617084
-0.669969 0.719211 -0.184057
-0.227959 -0.256061 0.939397
0.395154 0.234842 0.888089
-0.530173 0.687155 0.496724
-0.744315 0.18066 -0.642929
-0.96011 0.00521681 -0.279575
0.32943 0.0260716 0.94382
-0.20628 -0.381902 -0.900888
0.218081 0.947601 0.233436
-0.897157 0.233532 -0.374929
0.582011 -0.512131 -0.631653
-0.463734 -0.214511 -0.859614
-0.530262 0.760797 -0.374178
-0.0945566 -0.348877 -0.932386
-0.454727 0.621418 0.638015
-0.329485 0.914364 0.235324
-0.873083 -0.0252236 0.486919
-0.627311 -0.311231 -0.713874
-0.815552 0.135313 0.562642
0.0260674 -0.331377 -0.943138
-0.35164 0.762345 -0.543304
-0.89594 -0.04929 -0.441431
0.496747 0.221047 -0.839274
0.350214 0.833952 0.426468
0.999377 0.0237467 0.0260985
0.717032 0.595034 -0.363043
-0.760745 0.357778 0.541537
-0.694698 -0.187463 -0.694443
-0.0202332 0.752144 -0.658688
-0.0599504 0.180262 0.98179
-0.555301 -0.515458 0.652644
0.584075 -0.118589 -0.80299
-0.297235 -0.858446 -0.417997
0.211377 0.219072 -0.952537
-0.76434 0.0465733 0.643129
0.10459 0.848674 0.518472
0.800325 0.559388 -0.215788
0.357445 -0.801422 0.479537
0.175229 -0.370386 0.9122
0.0189192 0.754628 0.655881
-0.740927 -0.426189 -0.519028
0.49409 -0.869319 0.0126262
-0.756947 0.337434 0.559615
-0.245508 0.813149 -0.527745
-0.103964 0.708245 -0.69827
-0.914344 -0.00896204 0.40484
-0.825478 -0.0161926 -0.564203
-0.914584 -0.0763943 0.397113
0.036773 0.989786 0.137736
-0.717492 0.671525 0.185091
-0.420896 0.636858 -0.645955
0.496425 0.80343 0.328727
0.525765 0.739516 0.420342
-0.488012 0.795527 0.35914
0.228594 0.0544228 0.971999
0.408967 -0.453106 0.792112
0.37469 0.51951 -0.76793
0.533247 0.248326 -0.808692
-0.191956 0.792619 0.578712
0.997169 0.069986 0.0275097
0.644233 -0.447635 -0.620151
-0.0113646 0.830399 -0.557054
0.251861 0.653755 0.713562
-0.29467 -0.846012 -0.444335
-0.195912 -0.594825 0.779616
0.175911 0.919198 0.35232
0.924913 -0.100061 0.366774
0.821729 0.559913 -0.106111
-0.0381592 -0.927618 -0.371577
0.836426 -0.476789 -0.270304
-0.442487 -0.0759691 0.893551
0.376155 -0.924138 -0.0669036
-0.557087 0.829103 0.0473506
0.093502 0.491067 -0.866089
0.894771 0.308518 -0.322804
-0.90246 -0.200391 0.381326
-0.444519 -0.487139 0.75173
-0.838235 0.442792 -0.318273
-0.14217 0.963102 -0.228524
0.823693 0.0149545 -0.566838
0.345587 -0.687932 -0.638215
-0.179871 -0.859407 0.478609
0.542617 0.255493 -0.800181
0.3458 -0.934886 0.0800602
0.80306 0.593499 -0.0534217
0.444904 -0.471307 -0.761531
0.583532 0.640205 0.499627
-0.26387 0.940123 0.215736
0.722947 -0.269346 0.63624
-0.117117 -0.992371 0.0385225
-0.695117 -0.116611 0.709376
-0.325753 0.306139 0.894519
0.025363 0.872762 -0.487487
0.868729 0.0894108 0.48715
-0.833334 0.400268 0.381236
-0.7903 0.165041 0.590074
-0.969624 -0.230526 -0.0817785
-0.251421 0.230429 0.940048
-0.870222 -0.241781 -0.429249
-0.850674 0.485709 0.2011
-0.381767 0.674153 -0.632275
0.367727 0.260354 0.892745
0.511877 -0.70307 0.493634
-0.559563 -0.703585 -0.438015
0.183384 -0.0298894 0.982587
0.742606 -0.0191307 -0.669455
0.649305 -0.391369 -0.652099
0.76918 -0.292516 -0.568152
0.156107 -0.43569 0.886456
-0.877648 0.386549 0.283397
0.765724 -0.513022 0.387911
-0.563149 0.266327 0.782262
0.398094 0.463573 -0.791594
-0.160135 0.756677 0.633874
0.792383 0.279029 0.542468
-0.502752 -0.0980685 0.85885
0.23833 -0.783858 -0.573381
-0.755921 0.577875 -0.307642
-0.404378 -0.499423 -0.766195
-0.880089 0.291146 0.375069
-0.0346359 0.911593 0.409633
-0.66904 0.683334 -0.292301
0.231978 -0.574539 -0.784915
-0.631266 0.727437 0.268958
-0.848498 0.290666 -0.442226
-0.325489 -0.574183 0.751246
-0.784398 0.138777 0.604534
-0.550617 -0.29263 0.781785
-0.244751 -0.359622 -0.900427
0.104264 -0.439459 -0.892191
-0.948759 0.303185 -0.0890781
-0.949051 0.129992 0.287061
0.0647628 -0.895436 -0.440455
-0.869495 -0.493781 -0.0126025
0.547437 -0.832858 -0.0816077
0.117751 -0.634026 0.764294
-0.974316 -0.0531812 -0.218814
0.464983 -0.883927 0.0496429
0.295956 -0.187986 -0.936521
0.440263 0.134548 -0.88773
-0.945953 -0.11471 -0.30334
0.792391 -0.50676 -0.339575
-0.0165661 -0.851779 -0.52364
-0.648121 -0.666597 -0.368223
-0.953457 -0.291505 0.0770991
-0.280551 0.959834 -0.0032217
0.151547 -0.98339 -0.0998911
-0.187046 -0.389405 0.901874
0.249786 -0.621458 0.742561
0.400902 -0.254934 -0.879935
-0.522152 -0.525294 0.671881
0.966276 0.252781 -0.0491143
-0.295754 0.925704 -0.2358
0.457779 0.100948 -0.883316
0.0308764 0.951477 -0.306168
0.235962 -0.764313 -0.600122
-0.348673 -0.414512 0.840599
-0.326456 -0.252217 0.910941
-0.930794 0.261478 0.255443
0.194358 0.797771 -0.570777
-0.422374 0.28429 0.860685
0.936836 0.348504 0.0297106
-0.755225 -0.0890361 0.64939
-0.103893 -0.785505 0.610072
-0.555873 -0.121919 0.822278
-0.913479 -0.262665 0.310747
-0.751704 0.413908 0.513441
0.211606 0.613098 0.76114
-0.40893 -0.797375 -0.443813
-0.317023 0.8803 -0.352942
0.994435 -0.105211 0.0054739
0.427787 0.0212052 -0.903631
0.48593 0.873507 -0.0292947
0.940773 -0.148138 -0.304961
-0.432004 -0.612066 -0.662381
0.0911503 -0.677533 -0.729823
0.0127855 0.89523 -0.44542
-0.393106 0.913594 -0.103988
0.881475 0.394046 0.260247
-0.314306 -0.936254 -0.156975
-0.00447474 0.461294 -0.887236
-0.0786111 -0.446554 -0.891297
0.710341 -0.662063 0.238931
-0.414951 -0.899175 -0.138921
-0.717429 -0.15283 0.679661
-0.300148 -0.829906 0.470284
-0.578118 0.801966 0.150432
0.36949 -0.807141 0.460435
0.133175 0.288968 0.948031
-0.0340885 0.983561 -0.177328
-0.436437 0.563161 0.701693
-0.759637 -0.0147948 0.650179
-0.731902 -0.625875 -0.269444
0.414365 0.626902 0.65977
-0.893803 0.12459 0.430806
-0.783903 -0.597906 0.167346
0.330923 -0.840039 0.429912
0.414493 -0.841364 0.346845
0.857849 0.0169149 0.513623
0.889142 -0.355213 -0.28853
0.835053 -0.486879 0.256192
0.0568473 -0.389208 -0.919394
-0.796985 0.0871326 -0.597681
-0.144893 -0.842732 -0.518467
0.714223 0.673763 -0.189551
0.0725693 0.952969 -0.294251
0.441505 0.609692 0.658292
0.408503 -0.782371 -0.470128
0.812315 0.0708209 0.578903
0.395927 0.389503 0.831582
-0.439827 0.64399 -0.625963
0.953182 0.00623647 0.302334
0.780445 -0.596233 -0.188181
0.249545 0.419642 -0.872713
-0.407048 -0.0335961 0.912789
-0.77177 -0.209695 -0.600333
0.934963 0.019104 -0.35423
0.440112 0.825679 0.352924
-0.396793 -0.220762 -0.890965
0.894558 0.364394 0.25881
-0.817845 -0.0228926 -0.574982
0.44563 0.0842818 0.891241
-0.898881 0.26737 0.347169
0.814664 0.383788 -0.434776
0.416412 0.831632 -0.367409
0.50808 0.678412 -0.530671
0.116036 0.819291 -0.561513
-0.987437 -0.144391 -0.0641869
-0.278167 -0.720488 0.635232
0.213444 -0.358334 -0.908867
0.18739 0.323858 -0.927362
0.969123 -0.119103 0.215904
0.0873622 -0.853362 -0.513947
-0.822205 0.33739 0.458418
-0.0231637 -0.935668 -0.35212
-0.88348 -0.216376 0.415505
0.695975 0.365512 0.618077
0.902518 -0.412973 -0.122123
0.794036 -0.417708 -0.441619
0.827232 -0.00662397 -0.561821
0.157254 -0.581857 -0.797943
-0.878318 -0.465007 -0.111019
0.419504 0.826409 0.375586
0.222884 0.262517 0.938833
-0.754926 -0.384909 0.530973
0.141019 0.336192 -0.931176
-0.119674 -0.70417 -0.699873
0.541498 -0.323349 0.776032
0.132637 0.145341 0.980451
0.505627 -0.765734 0.397484
0.160148 0.703147 -0.692775
0.329574 0.661056 -0.674082
0.481532 -0.834877 -0.266659
-0.0158057 -0.951492 -0.307267
-0.115988 -0.75802 -0.641836
-0.0111311 -0.0549684 0.998426
-0.375061 0.658928 0.65203
-0.0315992 0.933743 0.356546
-0.525483 0.572225 -0.629623
0.769604 -0.179057 -0.612902
-0.986407 0.154126 -0.0569745
0.902204 -0.233756 -0.362473
-0.646654 -0.706368 -0.287892
-0.915541 0.270597 0.297593
0.914751 0.340468 0.217513
0.0730257 -0.59988 -0.796751
0.687847 0.408495 0.599999
-0.874569 0.464805 0.138148
-0.29869 -0.835099 -0.461946
-0.554227 0.0374255 0.831524
-0.904013 0.347051 -0.249631
-0.944874 0.293079 0.146005
0.648745 0.191827 0.736432
0.839429 -0.189472 0.509372
-0.46892 0.880104 0.0743623
-0.889589 -0.395637 0.228258
-0.195718 -0.263248 0.944666
0.811181 0.437365 0.388198
0.75305 -0.544352 -0.369589
-0.829626 0.300207 0.47074
0.919408 -0.275458 -0.280736
0.381801 0.917405 -0.11223
0.13941 0.392326 -0.9092
0.145605 0.628546 -0.764022
-0.365275 -0.926352 -0.0919002
-0.832964 -0.0475619 0.551279
0.472619 0.875931 0.0968328
0.413978 0.71867 -0.55869
-0.678181 -0.462499 0.571109
0.968334 0.186296 0.166201
-0.594041 -0.78151 -0.190678
-0.334227 0.932206 0.138865