# vtk DataFile Version 3.0.
comment
ASCII

DATASET POLYDATA
POINTS 3792 double
0.235084 0.202116 0.412282
0.155701 0.392345 0.277467
0.645563 1.39811 0.565059
0.514131 0.197597 0.163909
0.200039 0.488779 0.458702
0.319404 0.770609 0.491818
1.45282 0.426605 0.384836
0.0459495 0.364729 0.472393
0.307373 0.0594095 0.138841
0.171772 0.128777 0.47764
1.44184 0.426132 0.229682
0.397799 0.425202 0.046672
0.69948 0.142159 0.715844
0.690167 0.653463 0.455389
0.243928 0.496077 0.162536
0.614343 0.129885 0.111918
0.110766 0.611888 0.0857658
0.226628 0.438446 0.668873
0.560668 0.615206 0.445359
0.567828 0.698383 0.0197934
0.601019 0.622838 0.526059
0.327025 0.078338 0.572379
0.272342 0.379389 0.273647
0.151817 0.657351 0.319164
0.654877 0.455802 0.301288
0.456469 0.0841101 1.41732
0.257696 0.127773 0.275151
0.282661 0.573766 0.0833167
0.576635 0.232336 0.68676
0.315635 0.414705 0.0227923
0.0848889 0.473855 0.426774
0.00752142 0.0535874 0.109178
0.457081 0.518435 0.667571
1.42801 0.243589 0.187409
0.175888 0.319382 0.739187
0.186521 0.561096 0.536875
0.115285 0.707483 0.596632
0.647902 0.62153 0.236419
0.538171 0.671689 0.327755
0.176488 0.507474 0.259163
0.494329 0.0217339 0.519531
0.0317943 0.507105 0.184388
0.537621 0.226698 0.0644307
0.573248 0.104807 0.446699
0.351669 0.341562 0.052945
0.532299 0.522567 0.00908442
0.359972 0.475246 0.692488
0.124586 0.492563 0.592272
0.387365 0.138161 0.511004
0.70088 0.608311 0.363722
0.285683 0.0671859 0.730475
0.575764 0.370722 0.549194
0.235735 0.339732 0.642023
0.449295 0.0674307 0.172137
0.0511315 0.464504 0.297671
0.386744 0.25697 0.38113
0.106859 0.255212 0.199003
0.476601 0.0424407 0.602994
0.5698 0.239421 0.370413
0.574037 0.434912 0.492981
0.101132 0.240547 0.396938
0.727492 0.421244 0.156625
0.471757 0.102879 0.0624547
0.196279 0.533438 0.644677
1.43619 0.691424 0.264816
0.0721788 0.721496 0.100169
0.0543404 0.620211 0.743548
0.304877 0.671818 0.32803
0.219851 0.107688 0.678802
0.35842 0.105712 0.421933
0.221145 0.706398 0.737785
0.396535 0.590346 0.545228
0.25642 0.474584 0.332961
0.615345 0.185158 0.186458
0.503514 0.615872 0.37806
0.501034 0.276224 0.624686
0.273456 0.31252 0.013965
0.279753 0.164275 0.0528208
0.454427 1.42272 0.113681
0.105544 0.509453 0.0994787
0.382128 0.498209 0.592645
0.308037 0.550265 0.255078
0.630103 0.466352 0.553801
0.416238 0.192477 0.435264
0.626781 0.447751 0.392778
0.393827 0.641675 0.0507558
0.696345 0.663745 0.16421
0.212814 0.185128 0.109304
0.123737 0.0822245 0.0893688
0.333084 0.594168 0.475169
0.588265 1.43014 0.490848
0.158102 0.642892 0.543792
0.462758 0.365891 0.263933
0.302986 0.652777 0.2522
0.320858 0.335539 0.590223
0.197559 0.262698 0.578155
0.668565 0.200527 0.627795
0.495607 0.630664 0.0911165
0.767546 0.255614 0.0668089
0.480662 0.612541 0.295082
0.409334 0.279625 0.0147826
0.0940183 0.0199039 0.0323351
0.581574 0.399552 0.0601927
0.307581 0.188826 0.264713
0.463333 0.309157 0.37124
0.707854 0.342374 0.417651
0.216434 0.708174 0.151479
0.681943 0.50306 0.388465
0.755918 0.508572 0.562254
0.608916 0.210606 0.107693
0.216849 0.641117 0.405973
0.593098 0.139659 0.663745
0.622418 0.15799 0.379174
0.0926993 0.113189 0.262327
0.420331 0.170625 0.195818
0.729161 0.34766 0.574906
0.0803957 0.20127 0.495134
0.0407108 0.179859 0.0296445
0.576649 0.212561 0.474921
0.492793 0.702232 0.420222
0.125721 0.576211 0.187412
0.580701 0.158392 0.28313
0.6607 0.418426 0.112382
0.667367 0.503323 0.136227
0.263771 0.360539 0.364794
0.709292 0.442512 0.490764
0.476198 0.488954 0.527119
0.225024 0.714258 0.340643
0.67661 0.351689 0.189383
0.490441 0.147751 0.360741
0.634846 0.360095 0.354588
0.303101 0.161034 0.667841
0.0935685 0.587681 0.599054
0.188263 0.298559 0.407265
0.20309 0.635243 0.0654088
0.597007 0.366259 0.695118
0.456064 0.0893047 0.456157
0.302371 0.533549 0.65383
0.239477 0.646504 0.502192
0.696117 0.189139 0.291104
0.115399 0.355818 0.652293
0.190223 0.632975 0.614833
0.159836 0.68126 0.226098
0.121837 0.266796 0.608504
0.526606 0.50436 0.425477
0.00588426 0.464331 0.0839729
0.130731 1.41752 0.405021
0.214577 0.231079 0.682473
0.141721 0.371873 0.480719
0.64344 0.392401 0.435711
0.372283 0.45647 0.299261
0.0753196 0.404852 0.117289
0.390262 0.521945 0.503389
0.0673309 0.425733 0.0220705
0.329488 0.190048 0.374274
0.101646 0.239639 0.70596
0.386025 1.42074 0.151828
0.053303 0.136106 0.0950626
0.402447 0.242192 0.251938
0.402729 0.171713 0.0156539
0.548161 0.00420319 0.129769
0.467911 0.29086 0.188613
0.0194741 0.534555 0.360504
0.0103255 0.053234 1.40994
0.422499 0.258785 0.65787
0.636802 0.575156 0.403015
0.0949506 0.0425542 0.178204
0.521817 0.593265 0.655971
0.34512 0.283202 0.544301
0.29658 0.45552 0.619042
0.371252 0.434217 0.529043
0.619033 0.0756922 0.346208
0.250664 0.192384 0.323126
0.442122 0.355229 0.0495329
0.52101 0.152413 0.719304
0.553326 0.426569 0.345383
0.456684 0.219365 0.541108
0.48347 0.239658 0.709373
0.339449 0.289431 0.67078
0.250675 0.321247 0.526785
0.336688 0.557447 0.00747187
0.612795 0.154995 0.0253064
0.645506 0.387841 0.613176
0.591095 0.284189 0.161418
0.311353 0.393671 0.672184
0.0446055 0.283823 0.446266
0.669619 0.50153 0.641675
0.0598012 0.414554 0.205847
0.150912 0.197517 0.565455
0.382104 0.378231 0.426935
0.513804 0.11148 0.637603
0.313323 0.163296 0.562042
0.074453 0.305432 0.535158
0.259869 0.336321 0.1137
0.590781 1.43412 0.390473
0.5954 0.0760767 0.580275
0.565164 0.601266 0.275332
0.116703 0.598274 0.282928
0.591333 0.38373 0.15455
0.682038 0.0571036 0.465431
0.357112 0.142605 0.120623
0.0395712 0.0103873 0.44174
0.669088 0.55635 0.536236
0.0004964 0.542716 0.452639
0.661831 0.304592 0.684876
0.149486 0.15604 0.649872
0.567194 0.599601 0.173639
0.298922 0.405883 0.178594
0.560097 0.101056 0.188938
0.304922 0.281885 0.217652
0.470849 0.549275 0.156259
0.629092 0.565064 0.0862224
0.624517 0.0235682 0.257589
0.40994 0.290094 0.469368
0.324657 0.491396 0.079062
0.548048 0.680546 0.598064
0.160756 0.274113 0.504107
0.300073 0.22315 0.125912
0.449223 0.593532 0.458447
0.543743 0.547397 0.0905463
0.042983 0.0414181 0.265724
0.568774 0.545843 0.514043
0.455272 0.425421 0.610389
0.545927 0.405071 0.219547
0.186708 0.56761 0.109065
0.61771 0.686986 0.18977
0.260194 0.033114 0.233466
0.399154 0.375553 0.686515
0.613225 0.381567 0.251397
0.0157073 0.583506 0.276363
0.228147 0.0310343 0.446421
0.224835 0.617033 0.287893
0.0265518 0.276423 0.631622
0.338664 0.246078 0.305605
0.562037 0.190222 0.579892
0.67484 0.310885 0.0777794
0.512502 0.351774 0.584575
0.628628 0.484135 0.057356
0.420356 0.0512133 0.354715
0.345561 0.220707 0.496077
0.464673 0.688989 0.289213
0.319919 0.411731 0.368101
0.500942 0.17248 0.465352
0.397417 0.75294 0.630551
0.0571582 0.48283 0.656061
0.131212 0.0362724 0.305898
0.6572 0.158594 0.515728
1.43772 0.735463 0.360948
0.673816 0.241472 0.432691
0.418879 0.396909 0.172599
0.295806 0.49861 0.524014
0.181937 0.101432 0.257829
0.0304384 0.577261 0.52011
0.301652 0.499089 0.422582
0.301009 0.401898 0.550467
0.540981 0.53863 0.330556
0.777126 0.510745 0.025873
0.453693 0.341188 0.128071
0.641592 0.562499 0.3122
0.30627 0.289993 0.425999
0.64387 1.4333 0.659663
0.106654 0.134589 0.55405
0.0705197 0.189325 0.6065
0.659518 0.633542 0.74045
0.374631 0.554612 0.325539
0.584534 0.590906 0.591575
0.364319 0.600579 0.159531
0.123322 0.0338264 0.500286
0.248391 0.616203 0.179253
0.546424 0.403095 0.638587
0.127605 0.478722 0.515557
0.622388 0.23389 0.0410188
0.0898729 0.564672 0.702423
0.101621 0.0408313 0.678601
0.137927 0.463183 0.345541
0.636457 0.661291 0.328296
0.202887 0.0110231 0.540801
0.588515 0.635711 0.676443
0.164908 0.408926 1.43301
1.45308 0.353779 0.292273
0.296385 0.67072 0.424886
0.478166 0.28671 0.053381
0.437061 0.674488 0.573138
0.547478 0.286466 0.535068
0.434496 0.22587 0.330686
0.641636 0.110898 0.227017
0.51742 0.346744 0.173486
0.020062 0.267017 0.354706
0.760925 0.192939 0.407653
0.640501 0.443926 0.198071
0.408841 0.248901 0.118644
0.139202 0.450987 0.179364
0.465568 0.46258 0.209926
0.182513 0.566341 0.0220289
0.718393 0.246669 0.536762
0.218933 0.251004 0.159538
0.472446 0.596634 0.00590995
0.350056 0.0969491 0.210465
0.0605389 0.606154 0.399641
0.504687 0.284557 0.121684
0.160603 0.198437 0.367814
0.404729 0.0499014 0.541524
0.20936 0.209827 0.243769
0.651375 0.0561681 0.0435279
0.138624 0.659206 0.706302
0.56271 0.50215 0.238031
0.376662 0.604765 0.645477
0.0572811 0.0924469 0.514565
0.310054 0.0597009 0.644598
0.494679 0.116644 0.549904
0.279868 0.247723 0.600571
0.27716 0.588384 0.586958
0.174042 0.0897576 0.58194
0.508456 0.658518 0.509163
0.0341133 0.114245 0.316406
0.137974 0.246847 0.0966136
0.739292 0.13779 0.465335
0.17018 0.0540579 0.732174
0.414085 0.454384 0.465879
0.193699 0.49932 0.0679364
0.62954 0.287232 0.271564
0.535962 0.143528 0.0900421
0.0377435 0.262898 0.261537
0.507874 0.251688 0.267384
0.4275 0.545697 0.253468
0.384887 0.0442368 0.0672029
0.359733 0.341958 0.146221
0.577081 0.305507 0.0296137
0.603961 0.511118 0.367372
0.484484 0.146724 0.252276
0.629097 0.245872 0.545938
0.0991183 0.332804 0.0714748
0.141209 0.338753 0.158231
0.557107 0.681662 0.241614
0.368359 0.0815983 0.694385
0.376579 0.621482 0.257796
0.749422 0.662606 0.665282
0.484369 0.0210374 0.0541413
0.166424 0.156329 0.0317601
0.0767332 0.335347 0.229181
0.0813295 0.121241 0.705545
0.665272 0.529109 0.224388
0.654658 0.331998 0.508525
0.185029 0.0608793 0.170941
0.0758227 0.65656 0.500661
0.224664 0.173011 0.601229
0.234706 0.248823 0.0599645
0.549807 0.330861 0.321803
0.0360942 0.330573 0.723017
0.707717 0.238286 0.727771
0.737298 0.124348 0.191969
0.144967 0.449032 0.649485
0.0373579 0.659733 0.114801
0.265474 0.437302 0.0781841
0.0416786 0.313263 0.143406
0.201693 0.108761 0.360641
0.174737 0.40956 0.0855214
0.156422 0.608825 0.460475
0.401515 0.310317 0.206237
0.776549 0.075286 0.0445798
0.464385 0.378209 0.505421
0.39965 0.648655 0.354974
0.737069 0.702693 0.0454153
0.294055 0.585307 0.368081
0.27824 0.404576 0.452268
0.513255 0.345052 0.0802223
[...]
POINT_DATA 3792
SCALARS radius double 1
LOOKUP_TABLE default
0.0499998
0.0649486
0.0406256
0.0568586
0.0566116
0.0475428
0.0454312
0.0400319
0.0452309
0.060451
0.037442
0.0407204
0.0479057
0.0645081
0.0647734
0.0455034
0.0494628
0.0419008
0.0522386
0.0534808
0.0383629
0.0375459
0.0531001
0.0375746
0.0602988
0.0458393
0.0395648
0.0529529
0.0515261
0.0377854
0.0626254
0.0445657
0.0562721
0.0558559
0.0551322
0.050912
0.0578567
0.0484464
0.046597
0.0536182
0.0438647
0.0585187
0.0498635
0.0622731
0.0493876
0.041522
0.0531938
0.036898
0.0442397
0.0383087
0.0504845
0.0380252
0.0610546
0.0639995
0.0641827
0.0356609
0.0468198
0.0439823
0.0606659
0.0474632
0.0416717
0.0373096
0.0438793
0.0609815
0.048524
0.0358826
0.0356567
0.0369117
0.0424989
0.0487537
0.0358217
0.0393073
0.0603006
0.0476463
0.0352723
0.0495831
0.0429281
0.0512007
0.0358201
0.0540725
0.0517807
0.0601847
0.0413313
0.053558
0.0357605
0.0583871
0.048262
0.0388056
0.046887
0.0552945
0.0583258
0.0360735
0.0624761
0.0415747
0.0386698
0.0374529
0.0623165
0.0516571
0.0446666
0.0422845
0.0438445
0.0374519
0.0537764
0.0402711
0.0575946
0.0470168
0.0384928
0.0426709
0.0451046
0.0356501
0.0435861
0.0411778
0.0367835
0.0434029
0.0460311
0.0423239
0.0576643
0.0372766
0.0476622
0.0611247
0.0583189
0.0590065
0.0430083
0.0454478
0.0403972
0.0629742
0.0540346
0.054922
0.0551514
0.0609417
0.0512654
0.0570816
0.0640466
0.0576931
0.0410466
0.0394689
0.05641
0.0371893
0.0554791
0.06104
0.0549435
0.0424847
0.0589804
0.0445787
0.0606424
0.0477648
0.060509
0.0568437
0.0564084
0.0365928
0.0618333
0.0496614
0.0411228
0.0477002
0.0527238
0.0589371
0.0425909
0.0424284
0.0468126
0.064313
0.0610025
0.0361736
0.0353667
0.0527336
0.0375732
0.0439479
0.0546102
0.0433998
0.0350343
0.0459801
0.0391361
0.0519789
0.0414657
0.0422344
0.050845
0.0543668
0.0609257
0.0447448
0.052037
0.0568382
0.0393639
0.0447854
0.0583183
0.0574629
0.0364985
0.0450828
0.0615191
0.0408254
0.0420271
0.0515614
0.0409523
0.049344
0.0511851
0.0608598
0.0423479
0.0639099
0.045376
0.0402553
0.04244
0.0581513
0.0539632
0.0423376
0.0574127
0.0460001
0.0505943
0.0477152
0.0563406
0.0420861
0.0531598
0.0642169
0.0538524
0.0428681
0.0497612
0.0502899
0.0398165
0.0606413
0.045983
0.0448812
0.0622743
0.0445637
0.0442076
0.0459742
0.0529451
0.0397317
0.0416427
0.037773
0.0640292
0.0541819
0.0384689
0.062133
0.0566254
0.051629
0.0523487
0.0367982
0.0551795
0.0639442
0.0369746
0.0430758
0.0579139
0.0438582
0.0362239
0.0357135
0.0386525
0.0398141
0.0565423
0.0531179
0.0580059
0.0571568
0.0607287
0.0409848
0.0586287
0.0428797
0.0356105
0.0433864
0.0411915
0.0416428
0.0387321
0.0385713
0.0479853
0.0622324
0.0587287
0.0354124
0.0486132
0.0574027
0.036908
0.0364695
0.0619278
0.0490789
0.0567106
0.04514
0.0360485
0.0362859
0.042119
0.0403076
0.0350677
0.0523796
0.0431178
0.0384918
0.0395641
0.0589966
0.0435561
0.0354443
0.0533895
0.0521589
0.0398105
0.0363618
0.040054
0.0498927
0.0421418
0.0446769
0.0645955
0.0506821
0.0483683
0.043307
0.0513261
0.0444718
0.0430332
0.0464948
0.0563253
0.0379587
0.0368403
0.0509022
0.0500667
0.0620404
0.06454
0.060716
0.0639167
0.0406292
0.0391126
0.0491806
0.0494462
0.052693
0.050451
0.0395276
0.0364602
0.0586171
0.0406667
0.0480875
0.0399568
0.0387114
0.0594658
0.0373615
0.0451555
0.0604939
0.0529605
0.0614168
0.0444488
0.0452962
0.0364141
0.0427178
0.0385496
0.0391189
0.052288
0.0422931
0.0408865
0.0387671
0.0595716
0.0394426
0.0564119
0.0439931
0.0469426
0.0465455
0.0589171
0.0377652
0.0578849
0.0435699
0.0449131
0.0446356
0.0544953
0.0406824
0.0645733
0.0379375
0.0365758
0.0404485
0.0510908
0.0621018
0.0549614
0.0440923
0.0352497
0.0351191
0.0596115
0.0647801
0.0497423
0.0591075
0.0586446
0.0359758
0.0589983
0.045074
0.0382935
0.0630287
0.0424845
0.0613088
0.04334
0.0436945
0.0642285
0.048221
0.0355834
0.0440647
0.0541382
0.0415727
0.0460295
0.0450893
0.05976
0.0531769
0.0441931
0.0409496
0.0453986
0.0536285
0.0422998
0.0613356
0.0487193
0.0604468
0.0475172
0.0530376
0.0622393
0.0613694
0.0417217
0.0379791
0.0361
0.0434769
0.0426293
0.0377211
0.0455062
0.0447815
0.0509285
0.0524756
0.0404041
0.04532
0.0383342
0.0423935
0.0422259
0.0613083
0.0377848
0.0491967
0.0459193
0.0438814
0.0397138
0.0649303
0.0365877
0.0630311
0.0499601
0.0428409
0.0360953
0.0499925
0.0439221
0.0622752
0.0384717
0.0643946
0.0640654
0.0519919
0.0383096
0.0546723
0.0478276
0.04349
0.0574162
0.0358137
0.0513653
0.0586607
0.0375308
0.051534
0.0433899
0.035882
0.0357902
0.0462005
0.0641259
0.0399762
0.0351682
0.04618
0.0613046
0.0586926
0.0568989
0.0640118
0.0371498
0.0422721
0.0507402
0.041045
0.0397026
0.0560541
0.0570691
0.0623357
0.062138
0.0591556
0.0372643
0.0434967
0.0441292
0.0398111
0.0549081
0.061876
0.0351989
0.0403238
0.0586019
0.0632953
0.0388426
0.0475287
0.0499998
0.0649486
0.0406256
0.0568586
0.0566116
0.0475428
0.0454312
0.0400319
0.0452309
0.060451
0.037442
0.0407204
0.0479057
0.0645081
0.0647734
0.0455034
0.0494628
0.0419008
0.0522386
0.0534808
0.0383629
0.0375459
0.0531001
0.0375746
0.0602988
0.0458393
0.0395648
0.0529529
0.0515261
0.0377854
0.0626254
0.0445657
0.0562721
0.0558559
0.0551322
0.050912
0.0578567
0.0484464
0.046597
0.0536182
0.0438647
0.0585187
0.0498635
0.0622731
0.0493876
0.041522
0.0531938
0.036898
0.0442397
0.0383087
0.0504845
0.0380252
0.0610546
0.0639995
0.0641827
0.0356609
0.0468198
0.0439823
0.0606659
0.0474632
0.0416717
0.0373096
0.0438793
0.0609815
0.048524
0.0358826
0.0356567
0.0369117
0.0424989
0.0487537
0.0358217
0.0393073
0.0603006
0.0476463
0.0352723
0.0495831
0.0429281
0.0512007
0.0358201
0.0540725
0.0517807
0.0601847
0.0413313
0.053558
0.0357605
0.0583871
0.048262
0.0388056
0.046887
0.0552945
0.0583258
0.0360735
0.0624761
0.0415747
0.0386698
0.0374529
0.0623165
0.0516571
0.0446666
0.0422845
0.0438445
0.0374519
0.0537764
0.0402711
0.0575946
0.0470168
0.0384928
0.0426709
0.0451046
0.0356501
0.0435861
0.0411778
0.0367835
0.0434029
0.0460311
0.0423239
0.0576643
0.0372766
0.0476622
0.0611247
0.0583189
0.0590065
0.0430083
0.0454478
0.0403972
0.0629742
0.0540346
0.054922
0.0551514
0.0609417
0.0512654
0.0570816
0.0640466
0.0576931
0.0410466
0.0394689
0.05641
0.0371893
0.0554791
0.06104
0.0549435
0.0424847
0.0589804
0.0445787
0.0606424
0.0477648
0.060509
0.0568437
0.0564084
0.0365928
0.0618333
0.0496614
0.0411228
0.0477002
0.0527238
0.0589371
0.0425909
0.0424284
0.0468126
0.064313
0.0610025
0.0361736
0.0353667
0.0527336
0.0375732
0.0439479
0.0546102
0.0433998
0.0350343
0.0459801
0.0391361
0.0519789
0.0414657
0.0422344
0.050845
0.0543668
0.0609257
0.0447448
0.052037
0.0568382
0.0393639
0.0447854
0.0583183
0.0574629
0.0364985
0.0450828
0.0615191
0.0408254
0.0420271
0.0515614
0.0409523
0.049344
0.0511851
0.0608598
0.0423479
0.0639099
0.045376
0.0402553
0.04244
0.0581513
0.0539632
0.0423376
0.0574127
0.0460001
0.0505943
0.0477152
0.0563406
0.0420861
0.0531598
0.0642169
0.0538524
0.0428681
0.0497612
0.0502899
0.0398165
0.0606413
0.045983
0.0448812
0.0622743
0.0445637
0.0442076
0.0459742
0.0529451
0.0397317
0.0416427
0.037773
0.0640292
0.0541819
0.0384689
0.062133
0.0566254
0.051629
0.0523487
0.0367982
0.0551795
0.0639442
0.0369746
0.0430758
0.0579139
0.0438582
0.0362239
0.0357135
0.0386525
0.0398141
0.0565423
0.0531179
0.0580059
0.0571568
0.0607287
0.0409848
0.0586287
0.0428797
0.0356105
0.0433864
0.0411915
0.0416428
0.0387321
0.0385713
0.0479853
0.0622324
0.0587287
0.0354124
0.0486132
0.0574027
0.036908
0.0364695
0.0619278
0.0490789
0.0567106
0.04514
0.0360485
0.0362859
0.042119
0.0403076
0.0350677
0.0523796
0.0431178
0.0384918
0.0395641
0.0589966
0.0435561
0.0354443
0.0533895
0.0521589
0.0398105
0.0363618
0.040054
0.0498927
0.0421418
0.0446769
0.0645955
0.0506821
0.0483683
0.043307
0.0513261
0.0444718
0.0430332
0.0464948
0.0563253
0.0379587
0.0368403
0.0509022
0.0500667
0.0620404
0.06454
0.060716
0.0639167
0.0406292
0.0391126
0.0491806
0.0494462
0.052693
0.050451
0.0395276
0.0364602
0.0586171
0.0406667
0.0480875
0.0399568
0.0387114
0.0594658
0.0373615
0.0451555
0.0604939
0.0529605
0.0614168
0.0444488
0.0452962
0.0364141
0.0427178
0.0385496
0.0391189
0.052288
0.0422931
0.0408865
0.0387671
0.0595716
0.0394426
0.0564119
0.0439931
0.0469426
0.0465455
0.0589171
0.0377652
0.0578849
0.0435699
0.0449131
0.0446356
0.0544953
0.0406824
0.0645733
0.0379375
0.0365758
0.0404485
0.0510908
0.0621018
0.0549614
0.0440923
0.0352497
0.0351191
0.0596115
0.0647801
0.0497423
0.0591075
0.0586446
0.0359758
0.0589983
0.045074
0.0382935
0.0630287
0.0424845
0.0613088
0.04334
0.0436945
0.0642285
0.048221
0.0355834
0.0440647
0.0541382
0.0415727
0.0460295
0.0450893
0.05976
0.0531769
0.0441931
0.0409496
0.0453986
0.0536285
0.0422998
0.0613356
0.0487193
0.0604468
0.0475172
0.0530376
0.0622393
0.0613694
0.0417217
0.0379791
0.0361
0.0434769
0.0426293
0.0377211
0.0455062
0.0447815
0.0509285
0.0524756
0.0404041
0.04532
0.0383342
0.0423935
0.0422259
0.0613083
0.0377848
0.0491967
0.0459193
0.0438814
0.0397138
0.0649303
0.0365877
0.0630311
0.0499601
0.0428409
0.0360953
0.0499925
0.0439221
0.0622752
0.0384717
0.0643946
0.0640654
0.0519919
0.0383096
0.0546723
0.0478276
0.04349
0.0574162
0.0358137
0.0513653
0.0586607
0.0375308
0.051534
0.0433899
0.035882
0.0357902
0.0462005
0.0641259
0.0399762
0.0351682
0.04618
0.0613046
0.0586926
0.0568989
0.0640118
0.0371498
0.0422721
0.0507402
0.041045
0.0397026
0.0560541
0.0570691
0.0623357
0.062138
0.0591556
0.0372643
0.0434967
0.0441292
0.0398111
0.0549081
0.061876
0.0351989
0.0403238
0.0586019
0.0632953
0.0388426
0.0475287
0.0499998
0.0649486
0.0406256
0.0568586
0.0566116
0.0475428
0.0454312
0.0400319
0.0452309
0.060451
0.037442
0.0407204
0.0479057
0.0645081
0.0647734
0.0455034
0.0494628
0.0419008
0.0522386
0.0534808
0.0383629
0.0375459
0.0531001
0.0375746
0.0602988
0.0458393
0.0395648
0.0529529
0.0515261
0.0377854
0.0626254
0.0445657
0.0562721
0.0558559
0.0551322
0.050912
0.0578567
0.0484464
0.046597
0.0536182
0.0438647
0.0585187
0.0498635
0.0622731
0.0493876
0.041522
0.0531938
0.036898
0.0442397
0.0383087
0.0504845
0.0380252
0.0610546
0.0639995
0.0641827
0.0356609
0.0468198
0.0439823
0.0606659
0.0474632
0.0416717
0.0373096
0.0438793
0.0609815
0.048524
0.0358826
0.0356567
0.0369117
0.0424989
0.0487537
0.0358217
0.0393073
0.0603006
0.0476463
0.0352723
0.0495831
0.0429281
0.0512007
0.0358201
0.0540725
0.0517807
0.0601847
0.0413313
0.053558
0.0357605
0.0583871
0.048262
0.0388056
0.046887
0.0552945
0.0583258
0.0360735
0.0624761
0.0415747
0.0386698
0.0374529
0.0623165
0.0516571
0.0446666
0.0422845
0.0438445
0.0374519
0.0537764
0.0402711
0.0575946
0.0470168
0.0384928
0.0426709
0.0451046
0.0356501
0.0435861
0.0411778
0.0367835
0.0434029
0.0460311
0.0423239
0.0576643
0.0372766
0.0476622
0.0611247
0.0583189
0.0590065
0.0430083
0.0454478
0.0403972
0.0629742
0.0540346
0.054922
0.0551514
0.0609417
0.0512654
0.0570816
0.0640466
0.0576931
0.0410466
0.0394689
0.05641
0.0371893
0.0554791
0.06104
0.0549435
0.0424847
0.0589804
0.0445787
0.0606424
0.0477648
0.060509
0.0568437
0.0564084
0.0365928
0.0618333
0.0496614
0.0411228
0.0477002
0.0527238
0.0589371
0.0425909
0.0424284
0.0468126
0.064313
0.0610025
0.0361736
0.0353667
0.0527336
0.0375732
0.0439479
0.0546102
0.0433998
0.0350343
0.0459801
0.0391361
0.0519789
0.0414657
0.0422344
0.050845
0.0543668
0.0609257
0.0447448
0.052037
0.0568382
0.0393639
0.0447854
0.0583183
0.0574629
0.0364985
0.0450828
0.0615191
0.0408254
0.0420271
0.0515614
0.0409523
0.049344
0.0511851
0.0608598
0.0423479
0.0639099
0.045376
0.0402553
0.04244
0.0581513
0.0539632
0.0423376
0.0574127
0.0460001
0.0505943
0.0477152
0.0563406
0.0420861
0.0531598
0.0642169
0.0538524
0.0428681
0.0497612
0.0502899
0.0398165
0.0606413
0.045983
0.0448812
0.0622743
0.0445637
0.0442076
0.0459742
0.0529451
0.0397317
0.0416427
0.037773
0.0640292
0.0541819
0.0384689
0.062133
0.0566254
0.051629
0.0523487
0.0367982
0.0551795
0.0639442
0.0369746
0.0430758
0.0579139
0.0438582
0.0362239
0.0357135
0.0386525
0.0398141
0.0565423
0.0531179
0.0580059
0.0571568
0.0607287
0.0409848
0.0586287
0.0428797
0.0356105
0.0433864
0.0411915
0.0416428
0.0387321
0.0385713
0.0479853
0.0622324
0.0587287
0.0354124
0.0486132
0.0574027
0.036908
0.0364695
0.0619278
0.0490789
0.0567106
0.04514
0.0360485
0.0362859
0.042119
0.0403076
0.0350677
0.0523796
0.0431178
0.0384918
0.0395641
0.0589966
0.0435561
0.0354443
0.0533895
0.0521589
0.0398105
0.0363618
0.040054
0.0498927
0.0421418
0.0446769
0.0645955
0.0506821
0.0483683
0.043307
0.0513261
0.0444718
0.0430332
0.0464948
0.0563253
0.0379587
0.0368403
0.0509022
0.0500667
0.0620404
0.06454
0.060716
0.0639167
0.0406292
0.0391126
0.0491806
0.0494462
0.052693
0.050451
0.0395276
0.0364602
0.0586171
0.0406667
0.0480875
0.0399568
0.0387114
0.0594658
0.0373615
0.0451555
0.0604939
0.0529605
0.0614168
0.0444488
0.0452962
0.0364141
0.0427178
0.0385496
0.0391189
0.052288
0.0422931
0.0408865
0.0387671
0.0595716
0.0394426
0.0564119
0.0439931
0.0469426
0.0465455
0.0589171
0.0377652
0.0578849
0.0435699
0.0449131
0.0446356
0.0544953
0.0406824
0.0645733
0.0379375
0.0365758
0.0404485
0.0510908
0.0621018
0.0549614
0.0440923
0.0352497
0.0351191
0.0596115
0.0647801
0.0497423
0.0591075
0.0586446
0.0359758
0.0589983
0.045074
0.0382935
0.0630287
0.0424845
0.0613088
0.04334
0.0436945
0.0642285
0.048221
0.0355834
0.0440647
0.0541382
0.0415727
0.0460295
0.0450893
0.05976
0.0531769
0.0441931
0.0409496
0.0453986
0.0536285
0.0422998
0.0613356
0.0487193
0.0604468
0.0475172
0.0530376
0.0622393
0.0613694
0.0417217
0.0379791
0.0361
0.0434769
0.0426293
0.0377211
0.0455062
0.0447815
0.0509285
0.0524756
0.0404041
0.04532
0.0383342
0.0423935
0.0422259
0.0613083
0.0377848
0.0491967
0.0459193
0.0438814
0.0397138
0.0649303
0.0365877
0.0630311
0.0499601
0.0428409
0.0360953
0.0499925
0.0439221
0.0622752
0.0384717
0.0643946
0.0640654
0.0519919
0.0383096
0.0546723
0.0478276
0.04349
0.0574162
0.0358137
0.0513653
0.0586607
0.0375308
0.051534
0.0433899
0.035882
0.0357902
0.0462005
0.0641259
0.0399762
0.0351682
0.04618
0.0613046
0.0586926
0.0568989
0.0640118
0.0371498
0.0422721
0.0507402
0.041045
0.0397026
0.0560541
0.0570691
0.0623357
0.062138
0.0591556
0.0372643
0.0434967
0.0441292
0.0398111
0.0549081
0.061876
0.0351989
0.0403238
0.0586019
0.0632953
0.0388426
0.0475287
0.0499998
0.0649486
0.0406256
0.0568586
0.0566116
0.0475428
0.0454312
0.0400319
0.0452309
0.060451
0.037442
0.0407204
0.0479057
0.0645081
0.0647734
0.0455034
0.0494628
0.0419008
0.0522386
0.0534808
0.0383629
0.0375459
0.0531001
0.0375746
0.0602988
0.0458393
0.0395648
0.0529529
0.0515261
0.0377854
0.0626254
0.0445657
0.0562721
0.0558559
0.0551322
0.050912
0.0578567
0.0484464
0.046597
0.0536182
0.0438647
0.0585187
0.0498635
0.0622731
0.0493876
0.041522
0.0531938
0.036898
0.0442397
0.0383087
0.0504845
0.0380252
0.0610546
0.0639995
0.0641827
0.0356609
0.0468198
0.0439823
0.0606659
0.0474632
0.0416717
0.0373096
0.0438793
0.0609815
0.048524
0.0358826
0.0356567
0.0369117
0.0424989
0.0487537
0.0358217
0.0393073
0.0603006
0.0476463
0.0352723
0.0495831
0.0429281
0.0512007
0.0358201
0.0540725
0.0517807
0.0601847
0.0413313
0.053558
0.0357605
0.0583871
0.048262
0.0388056
0.046887
0.0552945
0.0583258
0.0360735
0.0624761
0.0415747
0.0386698
0.0374529
0.0623165
0.0516571
0.0446666
0.0422845
0.0438445
0.0374519
0.0537764
0.0402711
0.0575946
0.0470168
0.0384928
0.0426709
0.0451046
0.0356501
0.0435861
0.0411778
0.0367835
0.0434029
0.0460311
0.0423239
0.0576643
0.0372766
0.0476622
0.0611247
0.0583189
0.0590065
0.0430083
0.0454478
0.0403972
0.0629742
0.0540346
0.054922
0.0551514
0.0609417
0.0512654
0.0570816
0.0640466
0.0576931
0.0410466
0.0394689
0.05641
0.0371893
0.0554791
0.06104
0.0549435
0.0424847
0.0589804
0.0445787
0.0606424
0.0477648
0.060509
0.0568437
0.0564084
0.0365928
0.0618333
0.0496614
0.0411228
0.0477002
0.0527238
0.0589371
0.0425909
0.0424284
0.0468126
0.064313
0.0610025
0.0361736
0.0353667
0.0527336
0.0375732
0.0439479
0.0546102
0.0433998
0.0350343
0.0459801
0.0391361
0.0519789
0.0414657
0.0422344
0.050845
0.0543668
0.0609257
0.0447448
0.052037
0.0568382
0.0393639
0.0447854
0.0583183
0.0574629
0.0364985
0.0450828
0.0615191
0.0408254
0.0420271
0.0515614
0.0409523
0.049344
0.0511851
0.0608598
0.0423479
0.0639099
0.045376
0.0402553
0.04244
0.0581513
0.0539632
0.0423376
0.0574127
0.0460001
0.0505943
0.0477152
0.0563406
0.0420861
0.0531598
0.0642169
0.0538524
0.0428681
0.0497612
0.0502899
0.0398165
0.0606413
0.045983
0.0448812
0.0622743
0.0445637
0.0442076
0.0459742
0.0529451
0.0397317
0.0416427
0.037773
0.0640292
0.0541819
0.0384689
0.062133
0.0566254
0.051629
0.0523487
0.0367982
0.0551795
0.0639442
0.0369746
0.0430758
0.0579139
0.0438582
0.0362239
0.0357135
0.0386525
0.0398141
0.0565423
0.0531179
0.0580059
0.0571568
0.0607287
0.0409848
0.0586287
0.0428797
0.0356105
0.0433864
0.0411915
0.0416428
0.0387321
0.0385713
0.0479853
0.0622324
0.0587287
0.0354124
0.0486132
0.0574027
0.036908
0.0364695
0.0619278
0.0490789
0.0567106
0.04514
0.0360485
0.0362859
0.042119
0.0403076
0.0350677
0.0523796
0.0431178
0.0384918
0.0395641
0.0589966
0.0435561
0.0354443
0.0533895
0.0521589
0.0398105
0.0363618
0.040054
0.0498927
0.0421418
0.0446769
0.0645955
0.0506821
0.0483683
0.043307
0.0513261
0.0444718
0.0430332
0.0464948
0.0563253
0.0379587
0.0368403
0.0509022
0.0500667
0.0620404
0.06454
0.060716
0.0639167
0.0406292
0.0391126
0.0491806
0.0494462
0.052693
0.050451
0.0395276
0.0364602
0.0586171
0.0406667
0.0480875
0.0399568
0.0387114
0.0594658
0.0373615
0.0451555
0.0604939
0.0529605
0.0614168
0.0444488
0.0452962
0.0364141
0.0427178
0.0385496
0.0391189
0.052288
0.0422931
0.0408865
0.0387671
0.0595716
0.0394426
0.0564119
0.0439931
0.0469426
0.0465455
0.0589171
0.0377652
0.0578849
0.0435699
0.0449131
0.0446356
0.0544953
0.0406824
0.0645733
0.0379375
0.0365758
0.0404485
0.0510908
0.0621018
0.0549614
0.0440923
0.0352497
0.0351191
0.0596115
0.0647801
0.0497423
0.0591075
0.0586446
0.0359758
0.0589983
0.045074
0.0382935
0.0630287
0.0424845
0.0613088
0.04334
0.0436945
0.0642285
0.048221
0.0355834
0.0440647
0.0541382
0.0415727
0.0460295
0.0450893
0.05976
0.0531769
0.0441931
0.0409496
0.0453986
0.0536285
0.0422998
0.0613356
0.0487193
0.0604468
0.0475172
0.0530376
0.0622393
0.0613694
0.0417217
0.0379791
0.0361
0.0434769
0.0426293
0.0377211
0.0455062
0.0447815
0.0509285
0.0524756
0.0404041
0.04532
0.0383342
0.0423935
0.0422259
0.0613083
0.0377848
0.0491967
0.0459193
0.0438814
0.0397138
0.0649303
0.0365877
0.0630311
0.0499601
0.0428409
0.0360953
0.0499925
0.0439221
0.0622752
0.0384717
0.0643946
0.0640654
0.0519919
0.0383096
0.0546723
0.0478276
0.04349
0.0574162
0.0358137
0.0513653
0.0586607
0.0375308
0.051534
0.0433899
0.035882
0.0357902
0.0462005
0.0641259
0.0399762
0.0351682
0.04618
0.0613046
0.0586926
0.0568989
0.0640118
0.0371498
0.0422721
0.0507402
0.041045
0.0397026
0.0560541
0.0570691
0.0623357
0.062138
0.0591556
0.0372643
0.0434967
0.0441292
0.0398111
0.0549081
0.061876
0.0351989
0.0403238
0.0586019
0.0632953
0.0388426
0.0475287
0.0499998
0.0649486
0.0406256
0.0568586
0.0566116
0.0475428
0.0454312
0.0400319
0.0452309
0.060451
0.037442
0.0407204
0.0479057
0.0645081
0.0647734
0.0455034
0.0494628
0.0419008
0.0522386
0.0534808
0.0383629
0.0375459
0.0531001
0.0375746
0.0602988
0.0458393
0.0395648
0.0529529
0.0515261
0.0377854
0.0626254
0.0445657
0.0562721
0.0558559
0.0551322
0.050912
0.0578567
0.0484464
0.046597
0.0536182
0.0438647
0.0585187
0.0498635
0.0622731
0.0493876
0.041522
0.0531938
0.036898
0.0442397
0.0383087
0.0504845
0.0380252
0.0610546
0.0639995
0.0641827
0.0356609
0.0468198
0.0439823
0.0606659
0.0474632
0.0416717
0.0373096
0.0438793
0.0609815
0.048524
0.0358826
0.0356567
0.0369117
0.0424989
0.0487537
0.0358217
0.0393073
0.0603006
0.0476463
0.0352723
0.0495831
0.0429281
0.0512007
0.0358201
0.0540725
0.0517807
0.0601847
0.0413313
0.053558
0.0357605
0.0583871
0.048262
0.0388056
0.046887
0.0552945
0.0583258
0.0360735
0.0624761
0.0415747
0.0386698
0.0374529
0.0623165
0.0516571
0.0446666
0.0422845
0.0438445
0.0374519
0.0537764
0.0402711
0.0575946
0.0470168
0.0384928
0.0426709
0.0451046
0.0356501
0.0435861
0.0411778
0.0367835
0.0434029
0.0460311
0.0423239
0.0576643
0.0372766
0.0476622
0.0611247
0.0583189
0.0590065